# Created by CSS Data Browser Version 4.2.4.201704181848
# 
# Start Time : 2018-07-27 11:00:00.000 -0400
# End Time   : 2018-07-27 12:16:00.000 -0400
# Source     : Optimized Archived Data
# Desired Value Count: 455.0
# Format     : Exponential (6 digits)
# 
# Data is in TAB-delimited columns, should import into e.g. Excel

# Channel: SCR_BTS35:BCM1_D1542:AVG_RD
# Archives:
# 1) new
#    URL: pbraw://epicsarchiver.frib.msu.edu/retrieval
#    Key: 1
# 
# Channel: SCR_BTS35:BCM2_D1542:AVG_RD
# Archives:
# 1) new
#    URL: pbraw://epicsarchiver.frib.msu.edu/retrieval
#    Key: 1
# 
# Channel: SCR_BTS35:BCM3_D1542:AVG_RD
# Archives:
# 1) new
#    URL: pbraw://epicsarchiver.frib.msu.edu/retrieval
#    Key: 1
# 
# Channel: SCR_BTS35:BCM4_D1542:AVG_RD
# Archives:
# 1) new
#    URL: pbraw://epicsarchiver.frib.msu.edu/retrieval
#    Key: 1
# 
# Channel: SCR_BTS35:PSD_D1489:I_RD
# Archives:
# 1) new
#    URL: pbraw://epicsarchiver.frib.msu.edu/retrieval
#    Key: 1
# 

# Time	SCR_BTS35:BCM1_D1542:AVG_RD Value	SCR_BTS35:BCM2_D1542:AVG_RD Value	SCR_BTS35:BCM3_D1542:AVG_RD Value	SCR_BTS35:BCM4_D1542:AVG_RD Value	SCR_BTS35:PSD_D1489:I_RD Value
2018-07-27 11:00:05.000000000	2.143401E-12	1.424458E-12	2.548036E-12	3.418683E-12	1.104800E2
2018-07-27 11:00:15.000000000	5.602010E-13	1.742344E-12	1.530659E-12	1.794898E-12	1.104800E2
2018-07-27 11:00:25.000000000	3.581401E-12	1.688818E-12	2.283325E-12	4.352109E-12	1.104800E2
2018-07-27 11:00:35.000000000	2.603406E-12	1.026103E-12	2.372624E-12	2.426871E-12	1.104800E2
2018-07-27 11:00:45.000000000	1.587033E-12	4.216920E-13	1.948476E-12	2.431035E-12	1.104800E2
2018-07-27 11:00:55.000000000	2.340962E-12	6.932549E-13	3.199145E-12	1.904578E-12	1.104800E2
2018-07-27 11:01:05.000000000	1.568748E-12	5.667006E-13	2.314195E-12	2.033181E-12	1.104800E2
2018-07-27 11:01:15.000000000	1.840560E-12	8.341535E-13	2.804881E-12	3.851204E-12	1.104800E2
2018-07-27 11:01:25.000000000	1.762714E-12	7.468056E-13	1.776779E-12	2.783007E-12	1.104800E2
2018-07-27 11:01:35.000000000	2.010283E-12	9.827262E-13	2.449061E-12	1.690095E-12	1.104800E2
2018-07-27 11:01:45.000000000	9.505207E-13	3.431345E-13	2.113187E-12	3.170740E-12	1.104800E2
2018-07-27 11:01:55.000000000	1.625099E-11	3.848645E-13	1.596045E-11	-1.280094E-12	1.104800E2
2018-07-27 11:02:01.925085310	1.625099E-11	3.848645E-13	1.596045E-11	-1.280094E-12	1.106400E2
2018-07-27 11:02:05.000000000	1.119252E-11	1.846872E-12	1.590778E-11	-7.148493E-13	1.106400E2
2018-07-27 11:02:15.000000000	8.409091E-12	7.953213E-12	1.448010E-11	8.552115E-13	1.106400E2
2018-07-27 11:02:25.000000000	8.534786E-12	7.933267E-12	1.342299E-11	9.040250E-13	1.106400E2
2018-07-27 11:02:35.000000000	-3.163549E-12	1.054692E-11	1.933629E-14	1.359170E-11	1.106400E2
2018-07-27 11:02:45.000000000	9.090451E-12	8.522986E-12	1.244958E-11	3.977323E-13	1.106400E2
2018-07-27 11:02:55.000000000	9.881017E-12	1.011067E-11	1.243135E-11	9.860518E-13	1.106400E2
2018-07-27 11:03:05.000000000	8.522157E-12	1.055780E-11	1.141964E-11	1.041724E-12	1.106400E2
2018-07-27 11:03:15.000000000	8.977144E-12	9.180478E-12	1.164264E-11	3.797358E-14	1.106400E2
2018-07-27 11:03:25.000000000	9.750506E-12	8.054384E-12	1.148026E-11	-2.337356E-13	1.106400E2
2018-07-27 11:03:35.000000000	8.866619E-12	9.174190E-12	1.220458E-11	1.476113E-12	1.106400E2
2018-07-27 11:03:45.000000000	8.189834E-12	1.061329E-11	1.317479E-11	1.063390E-12	1.106400E2
2018-07-27 11:03:55.000000000	9.512483E-12	7.503062E-12	1.483323E-11	6.712729E-13	1.106400E2
2018-07-27 11:04:05.000000000	6.819538E-12	1.167499E-11	1.150041E-11	2.156060E-12	1.106400E2
2018-07-27 11:04:15.000000000	8.641586E-12	9.380396E-12	1.158356E-11	2.532661E-12	1.106400E2
2018-07-27 11:04:25.000000000	1.009753E-11	7.814139E-12	1.268132E-11	1.887936E-12	1.106400E2
2018-07-27 11:04:35.000000000	9.766816E-12	1.026429E-11	1.273627E-11	2.973402E-12	1.106400E2
2018-07-27 11:04:45.000000000	8.644147E-12	9.001376E-12	1.294237E-11	2.521847E-12	1.106400E2
2018-07-27 11:04:55.000000000	1.034734E-11	9.746285E-12	1.217731E-11	-4.164739E-14	1.106400E2
2018-07-27 11:04:57.579301491	1.034734E-11	9.746285E-12	1.217731E-11	-4.164739E-14	1.107500E2
2018-07-27 11:05:00.881701581	1.034734E-11	9.746285E-12	1.217731E-11	-4.164739E-14	1.106400E2
2018-07-27 11:05:05.000000000	7.030552E-12	1.113762E-11	1.180777E-11	1.279747E-12	1.106400E2
2018-07-27 11:05:15.000000000	8.141545E-12	1.263927E-11	1.130271E-11	3.051277E-12	1.106400E2
2018-07-27 11:05:25.000000000	8.780582E-12	9.665053E-12	1.405332E-11	2.395802E-12	1.106400E2
2018-07-27 11:05:35.000000000	7.272678E-12	1.300052E-11	1.067837E-11	1.350793E-12	1.106400E2
2018-07-27 11:05:45.000000000	1.086195E-11	9.361990E-12	1.074030E-11	2.059540E-12	1.106400E2
2018-07-27 11:05:55.000000000	9.004004E-12	9.416519E-12	1.116795E-11	2.341116E-12	1.106400E2
2018-07-27 11:06:05.000000000	7.589841E-12	1.070613E-11	7.641836E-12	1.834150E-12	1.106400E2
2018-07-27 11:06:15.000000000	8.356965E-12	7.451106E-12	1.025539E-11	2.610471E-12	1.106400E2
2018-07-27 11:06:25.000000000	7.210902E-12	1.003110E-11	7.668686E-12	2.141584E-12	1.106400E2
2018-07-27 11:06:35.000000000	7.113802E-12	8.480626E-12	8.581573E-12	4.238255E-12	1.106400E2
2018-07-27 11:06:45.000000000	3.982525E-13	1.147945E-11	5.324506E-12	7.504666E-12	1.106400E2
2018-07-27 11:06:55.000000000	1.506469E-12	1.058952E-11	4.461227E-12	7.061272E-12	1.106400E2
2018-07-27 11:07:05.000000000	-1.156617E-12	1.042097E-11	2.054453E-12	9.516746E-12	1.106400E2
2018-07-27 11:07:15.000000000	1.450990E-12	9.890803E-12	2.494882E-12	9.147356E-12	1.106400E2
2018-07-27 11:07:25.000000000	2.181814E-12	1.044639E-11	2.866730E-12	9.068053E-12	1.106400E2
2018-07-27 11:07:35.000000000	1.966403E-12	1.052636E-12	2.055285E-12	2.826949E-12	1.106400E2
2018-07-27 11:07:45.000000000	9.278276E-13	5.204352E-13	2.154773E-12	1.321267E-12	1.106400E2
2018-07-27 11:07:55.000000000	2.193097E-12	-4.552901E-13	-2.332709E-14	1.599729E-12	1.106400E2
2018-07-27 11:08:05.000000000	1.129959E-12	7.222728E-14	1.380649E-12	4.403510E-13	1.106400E2
2018-07-27 11:08:15.000000000	1.078343E-13	1.067603E-12	2.925308E-12	2.617577E-12	1.106400E2
2018-07-27 11:08:25.000000000	-1.490359E-12	1.464473E-13	1.006037E-12	-3.646219E-13	1.106400E2
2018-07-27 11:08:35.000000000	-2.679878E-12	1.326587E-11	7.753738E-13	1.004190E-11	1.106400E2
2018-07-27 11:08:45.000000000	-3.089324E-12	1.339302E-11	-2.733698E-12	8.490445E-12	1.106400E2
2018-07-27 11:08:55.000000000	-1.735244E-12	1.047169E-11	1.376348E-12	8.522733E-12	1.106400E2
2018-07-27 11:09:05.000000000	-2.607963E-12	9.733688E-12	1.627922E-12	6.841521E-12	1.106400E2
2018-07-27 11:09:15.000000000	-4.851185E-12	1.061860E-11	1.263656E-12	8.152513E-12	1.106400E2
2018-07-27 11:09:25.000000000	-1.843462E-12	8.501756E-12	1.571224E-12	5.929266E-12	1.106400E2
2018-07-27 11:09:35.000000000	-1.165049E-11	1.053804E-10	4.798452E-12	7.691003E-11	1.106400E2
2018-07-27 11:09:45.000000000	-8.579274E-12	1.161732E-10	2.446409E-12	7.386548E-11	1.106400E2
2018-07-27 11:09:55.000000000	-3.618218E-11	1.168554E-10	-3.270019E-11	1.151094E-10	1.106400E2
2018-07-27 11:10:05.000000000	-4.075639E-11	1.199907E-10	-2.903683E-11	1.048417E-10	1.106400E2
2018-07-27 11:10:15.000000000	-3.534055E-11	1.214624E-10	-2.904260E-11	9.950054E-11	1.106400E2
2018-07-27 11:10:25.000000000	-3.626053E-11	1.246275E-10	-3.136347E-11	1.067169E-10	1.106400E2
2018-07-27 11:10:35.000000000	-3.290753E-11	1.135179E-10	-2.629469E-11	1.023702E-10	1.106400E2
2018-07-27 11:10:45.000000000	-3.017072E-11	1.159856E-10	-2.458748E-11	1.009239E-10	1.106400E2
2018-07-27 11:10:55.000000000	-3.342104E-11	1.202920E-10	-2.923801E-11	9.991655E-11	1.106400E2
2018-07-27 11:11:05.000000000	-4.037577E-11	1.275742E-10	-3.814950E-11	9.968642E-11	1.106400E2
2018-07-27 11:11:15.000000000	-3.562469E-11	1.280021E-10	-3.457231E-11	9.729271E-11	1.106400E2
2018-07-27 11:11:25.000000000	-4.909182E-11	1.395352E-10	-4.981526E-11	1.093669E-10	1.106400E2
2018-07-27 11:11:35.000000000	-2.374153E-11	1.005421E-10	-1.936317E-11	8.911927E-11	1.106400E2
2018-07-27 11:11:45.000000000	-1.848681E-11	8.812907E-11	-5.182136E-12	8.465441E-11	1.106400E2
2018-07-27 11:11:55.000000000	-3.096529E-11	1.136996E-10	-2.816872E-11	9.474519E-11	1.106400E2
2018-07-27 11:12:05.000000000	-4.654247E-11	1.438396E-10	-4.640276E-11	9.571905E-11	1.106400E2
2018-07-27 11:12:15.000000000	-2.480154E-11	1.036529E-10	-2.115527E-11	9.004554E-11	1.106400E2
2018-07-27 11:12:25.000000000	-1.596894E-9	-4.989725E-10	-5.464062E-10	-3.425316E-10	1.106400E2
2018-07-27 11:12:35.000000000	3.080089E-10	1.991709E-10	2.082396E-10	2.618262E-10	1.106400E2
2018-07-27 11:12:45.000000000	-4.226559E-12	-2.071333E-11	-3.880843E-11	-6.430671E-11	1.106400E2
2018-07-27 11:12:55.000000000	-1.775407E-12	-1.182689E-11	-2.106635E-11	-2.709629E-11	1.106400E2
2018-07-27 11:13:05.000000000	-2.199686E-12	-6.253135E-12	-1.283781E-11	-1.589283E-11	1.106400E2
2018-07-27 11:13:15.000000000	-4.666827E-13	-3.111384E-12	-6.523928E-12	-8.647608E-12	1.106400E2
2018-07-27 11:13:25.000000000	2.446229E-14	-1.775622E-12	-4.066890E-12	-4.985018E-12	1.106400E2
2018-07-27 11:13:35.000000000	-5.732707E-13	-1.987002E-12	-2.444744E-12	-3.225981E-12	1.106400E2
2018-07-27 11:13:45.000000000	-9.903312E-13	-2.471832E-13	-1.165301E-12	-1.549150E-12	1.106400E2
2018-07-27 11:13:55.000000000	-2.066561E-12	-1.868944E-13	-6.177236E-13	-2.941870E-12	1.106400E2
2018-07-27 11:14:05.000000000	-1.166295E-12	4.921244E-13	1.319498E-12	-2.322360E-12	1.106400E2
2018-07-27 11:14:15.000000000	-9.696524E-13	-6.254451E-13	9.210719E-13	-1.088267E-12	1.106400E2
2018-07-27 11:14:25.000000000	-1.902278E-12	-1.768283E-12	1.711371E-12	3.809048E-13	1.106400E2
2018-07-27 11:14:35.000000000	-2.157668E-12	-7.654930E-13	-1.996999E-13	-1.222613E-12	1.106400E2
2018-07-27 11:14:45.000000000	-2.074820E-12	5.081255E-13	-6.670532E-13	-1.497717E-12	1.106400E2
2018-07-27 11:14:55.000000000	-2.112551E-12	-4.947551E-13	6.218512E-13	-3.487468E-13	1.106400E2
2018-07-27 11:15:05.000000000	-1.493068E-12	-1.678047E-13	2.146363E-13	-2.251836E-14	1.106400E2
2018-07-27 11:15:15.000000000	-6.629296E-13	4.909188E-13	-9.590604E-13	-1.175767E-12	1.106400E2
2018-07-27 11:15:25.000000000	1.682612E-14	1.900670E-13	1.178315E-12	-5.350154E-13	1.106400E2
2018-07-27 11:15:35.000000000	-5.323331E-13	-6.471209E-13	-2.438236E-13	-2.544675E-12	1.106400E2
2018-07-27 11:15:45.000000000	6.056496E-13	-5.059432E-13	-7.453425E-14	-1.237826E-13	1.106400E2
2018-07-27 11:15:55.000000000	6.894740E-13	-8.696832E-13	1.005410E-12	-5.123832E-14	1.106400E2
2018-07-27 11:16:05.000000000	-7.775670E-13	-7.763573E-13	9.035333E-13	-1.939359E-13	1.106400E2
2018-07-27 11:16:15.000000000	-1.975183E-12	-9.845753E-13	-6.305074E-13	-6.080893E-14	1.106400E2
2018-07-27 11:16:25.000000000	-2.062066E-12	2.635609E-14	-3.889989E-13	-5.927276E-13	1.106400E2
2018-07-27 11:16:35.000000000	-1.070486E-13	6.880205E-13	-1.058612E-12	-1.148542E-12	1.106400E2
2018-07-27 11:16:45.000000000	-1.643593E-12	1.376846E-12	4.041195E-13	-1.186990E-12	1.106400E2
2018-07-27 11:16:55.000000000	-2.372770E-12	2.501580E-13	-4.716204E-13	1.103038E-13	1.106400E2
2018-07-27 11:17:05.000000000	-1.325542E-12	7.609617E-14	-1.116124E-13	-1.045961E-12	1.106400E2
2018-07-27 11:17:15.000000000	-2.544444E-12	-1.787042E-13	-1.580309E-13	-7.588335E-13	1.106400E2
2018-07-27 11:17:25.000000000	-2.005366E-12	8.254796E-13	-3.711920E-13	-1.323124E-12	1.106400E2
2018-07-27 11:17:35.000000000	-2.028347E-12	8.661571E-13	-1.693005E-12	-1.838140E-12	1.106400E2
2018-07-27 11:17:45.000000000	-9.916167E-13	3.489757E-13	-5.572804E-13	-6.577914E-13	1.106400E2
2018-07-27 11:17:55.000000000	-7.110834E-13	9.904653E-13	-5.749139E-14	-9.809976E-13	1.106400E2
2018-07-27 11:18:05.000000000	1.640821E-13	1.523054E-12	1.199205E-13	1.156195E-14	1.106400E2
2018-07-27 11:18:15.000000000	-1.956969E-13	-2.070015E-13	4.205243E-14	9.207780E-13	1.106400E2
2018-07-27 11:18:25.000000000	-1.177257E-12	1.800763E-12	-3.537278E-13	-6.990798E-13	1.106400E2
2018-07-27 11:18:35.000000000	-1.646368E-12	6.576478E-13	1.310239E-12	-1.349907E-12	1.106400E2
2018-07-27 11:18:45.000000000	-1.538871E-12	4.892214E-13	1.413066E-12	-8.124018E-13	1.106400E2
2018-07-27 11:18:55.000000000	2.160072E-13	4.300990E-13	1.744098E-12	-1.771699E-12	1.106400E2
2018-07-27 11:19:05.000000000	-1.140753E-12	1.074092E-12	7.325695E-13	-1.502893E-12	1.106400E2
2018-07-27 11:19:15.000000000	8.818778E-16	5.474524E-13	2.321850E-12	-1.366617E-12	1.106400E2
2018-07-27 11:19:25.000000000	-1.670583E-13	1.013604E-12	1.552351E-12	-9.710193E-13	1.106400E2
2018-07-27 11:19:35.000000000	-1.444687E-12	2.095649E-12	7.174557E-13	-1.543648E-12	1.106400E2
2018-07-27 11:19:45.000000000	2.784255E-13	1.306275E-12	5.562400E-13	-4.929887E-13	1.106400E2
2018-07-27 11:19:55.000000000	-3.031099E-13	1.387882E-12	7.035421E-13	-8.597780E-13	1.106400E2
2018-07-27 11:20:05.000000000	3.804402E-14	8.959919E-13	1.772290E-13	-1.203416E-12	1.106400E2
2018-07-27 11:20:15.000000000	-1.597961E-12	7.024868E-13	1.169541E-12	-5.283965E-13	1.106400E2
2018-07-27 11:20:25.000000000	-8.253428E-13	3.046800E-13	-8.063018E-14	2.532479E-13	1.106400E2
2018-07-27 11:20:35.000000000	4.989518E-13	4.062422E-13	-6.588752E-13	-2.880946E-12	1.106400E2
2018-07-27 11:20:45.000000000	-2.364977E-13	-2.848167E-13	-1.672317E-13	-1.135435E-12	1.106400E2
2018-07-27 11:20:55.000000000	-1.426205E-12	1.596212E-13	-1.097147E-12	-2.361145E-12	1.106400E2
2018-07-27 11:21:05.000000000	-9.527914E-10	-3.902257E-10	-4.281433E-10	-1.312808E-10	1.106400E2
2018-07-27 11:21:15.000000000	1.297527E-12	2.482961E-11	2.607999E-11	-2.527925E-12	1.106400E2
2018-07-27 11:21:25.000000000	1.483492E-12	1.379648E-11	1.826289E-11	9.185806E-12	1.106400E2
2018-07-27 11:21:35.000000000	7.023337E-13	9.049066E-12	1.098764E-11	5.853587E-12	1.106400E2
2018-07-27 11:21:45.000000000	-6.500726E-13	5.384914E-12	7.166327E-12	4.317945E-12	1.106400E2
2018-07-27 11:21:55.000000000	-8.501681E-13	2.986052E-12	4.614138E-12	2.022887E-12	1.106400E2
2018-07-27 11:22:05.000000000	-1.440446E-12	2.780362E-12	4.968741E-12	1.814695E-12	1.106400E2
2018-07-27 11:22:15.000000000	-1.535217E-11	1.106767E-10	-2.314891E-12	9.569555E-11	1.106400E2
2018-07-27 11:22:25.000000000	-2.989764E-12	8.229344E-11	2.178300E-11	8.715494E-11	1.106400E2
2018-07-27 11:22:35.000000000	-1.352769E-11	1.007530E-10	-1.477316E-12	9.543991E-11	1.106400E2
2018-07-27 11:22:45.000000000	-1.326466E-11	1.087882E-10	-7.944339E-12	8.884105E-11	1.106400E2
2018-07-27 11:22:55.000000000	-1.234777E-11	1.032303E-10	1.119592E-13	8.505294E-11	1.106400E2
2018-07-27 11:23:05.000000000	-2.231864E-11	1.142694E-10	-1.829691E-11	9.505961E-11	1.106400E2
2018-07-27 11:23:15.000000000	-1.101973E-11	1.032249E-10	-3.354112E-12	8.036922E-11	1.106400E2
2018-07-27 11:23:25.000000000	-1.534209E-11	9.687292E-11	-2.745670E-12	9.927713E-11	1.106400E2
2018-07-27 11:23:35.000000000	-1.408519E-11	1.087439E-10	-8.170805E-12	8.552525E-11	1.106400E2
2018-07-27 11:23:45.000000000	-7.250703E-12	9.593801E-11	5.300591E-12	9.115926E-11	1.106400E2
2018-07-27 11:23:55.000000000	-2.359574E-11	1.087406E-10	-2.168622E-11	1.102827E-10	1.106400E2
2018-07-27 11:24:05.000000000	-1.782435E-11	1.084899E-10	-1.240583E-11	8.996887E-11	1.106400E2
2018-07-27 11:24:15.000000000	-2.062433E-11	1.078652E-10	-1.570096E-11	9.321190E-11	1.106400E2
2018-07-27 11:24:25.000000000	-8.680841E-12	1.009567E-10	3.724308E-12	8.432034E-11	1.106400E2
2018-07-27 11:24:35.000000000	-1.614684E-11	1.052526E-10	-1.652314E-11	9.862167E-11	1.106400E2
2018-07-27 11:24:45.000000000	-1.447712E-11	1.048875E-10	-7.320446E-12	9.365137E-11	1.106400E2
2018-07-27 11:24:55.000000000	-1.442743E-12	8.208131E-11	1.536091E-11	8.197523E-11	1.106400E2
2018-07-27 11:25:05.000000000	-1.282387E-11	1.117887E-10	-1.227280E-11	8.680565E-11	1.106400E2
2018-07-27 11:25:15.000000000	-6.709612E-12	9.522371E-11	2.792738E-12	8.489393E-11	1.106400E2
2018-07-27 11:25:25.000000000	2.008464E-12	7.661916E-11	1.717299E-11	7.949665E-11	1.106400E2
2018-07-27 11:25:35.000000000	-8.382375E-12	1.049855E-10	-1.520814E-12	8.720780E-11	1.106400E2
2018-07-27 11:25:45.000000000	-1.419517E-11	1.038921E-10	-7.971541E-12	8.936936E-11	1.106400E2
2018-07-27 11:25:55.000000000	-2.521335E-12	8.626085E-11	7.456752E-12	8.130805E-11	1.106400E2
2018-07-27 11:26:05.000000000	-2.651514E-12	8.851298E-11	6.118379E-12	8.101410E-11	1.106400E2
2018-07-27 11:26:15.000000000	-8.864340E-12	1.018016E-10	-3.993388E-12	8.749755E-11	1.106400E2
2018-07-27 11:26:25.000000000	-6.024194E-12	9.592879E-11	-1.283517E-12	8.046605E-11	1.106400E2
2018-07-27 11:26:35.000000000	-2.897589E-12	9.048461E-11	2.294630E-12	8.304694E-11	1.106400E2
2018-07-27 11:26:45.000000000	-5.739587E-12	9.553794E-11	-1.755690E-12	8.728052E-11	1.106400E2
2018-07-27 11:26:55.000000000	-1.055974E-11	1.013160E-10	-6.278833E-12	8.669455E-11	1.106400E2
2018-07-27 11:27:05.000000000	-1.586989E-12	9.658236E-11	3.914759E-12	8.079414E-11	1.106400E2
2018-07-27 11:27:15.000000000	-1.066767E-11	1.015902E-10	-7.711457E-12	7.965781E-11	1.106400E2
2018-07-27 11:27:25.000000000	-1.093958E-11	1.019257E-10	-6.999826E-12	7.710967E-11	1.106400E2
2018-07-27 11:27:35.000000000	-1.334298E-11	1.058571E-10	-1.270833E-11	8.946736E-11	1.106400E2
2018-07-27 11:27:45.000000000	-1.290272E-11	1.001803E-10	-7.895796E-12	8.591714E-11	1.106400E2
2018-07-27 11:27:55.000000000	-6.291316E-12	1.040094E-10	-7.044638E-12	7.419850E-11	1.106400E2
2018-07-27 11:28:05.000000000	-3.255370E-12	9.150656E-11	-7.619072E-13	7.741084E-11	1.106400E2
2018-07-27 11:28:15.000000000	1.010820E-12	-2.123955E-12	-4.893083E-12	-4.483451E-12	1.106400E2
2018-07-27 11:28:25.000000000	1.342822E-12	-3.721237E-12	-5.122102E-12	-4.961167E-12	1.106400E2
2018-07-27 11:28:35.000000000	1.115998E-12	-2.809302E-12	-4.675558E-12	-4.573283E-12	1.106400E2
2018-07-27 11:28:45.000000000	1.517602E-13	1.038488E-10	7.243654E-12	6.802096E-11	1.106400E2
2018-07-27 11:28:55.000000000	1.383270E-11	9.204239E-11	1.622149E-11	5.553437E-11	1.106400E2
2018-07-27 11:29:05.000000000	-1.732989E-12	8.990373E-11	1.580887E-11	6.461811E-11	1.106400E2
2018-07-27 11:29:15.000000000	1.017347E-11	8.939868E-11	1.865849E-11	6.141413E-11	1.106400E2
2018-07-27 11:29:25.000000000	1.884291E-12	1.098172E-10	7.199944E-12	6.414583E-11	1.106400E2
2018-07-27 11:29:35.000000000	8.817018E-12	8.383743E-11	2.388054E-11	7.833750E-11	1.106400E2
2018-07-27 11:29:45.000000000	2.543362E-11	6.210737E-11	4.040071E-11	4.468364E-11	1.106400E2
2018-07-27 11:29:55.000000000	-3.156024E-12	1.062647E-10	6.896443E-12	7.651254E-11	1.106400E2
2018-07-27 11:30:05.000000000	1.450019E-11	7.406462E-11	3.283704E-11	5.580049E-11	1.106400E2
2018-07-27 11:30:15.000000000	2.641200E-11	9.131788E-11	3.211204E-11	4.653337E-11	1.106400E2
2018-07-27 11:30:25.000000000	1.374864E-11	9.769004E-11	2.792589E-11	5.514264E-11	1.106400E2
2018-07-27 11:30:35.000000000	2.719106E-11	8.623071E-11	3.649030E-11	4.400221E-11	1.106400E2
2018-07-27 11:30:45.000000000	3.237628E-11	8.600598E-11	3.624924E-11	4.484404E-11	1.106400E2
2018-07-27 11:30:55.000000000	9.857380E-12	9.339599E-11	3.050412E-11	6.055478E-11	1.106400E2
2018-07-27 11:31:05.000000000	1.355590E-11	1.002336E-10	2.672193E-11	5.412248E-11	1.106400E2
2018-07-27 11:31:15.000000000	3.803771E-11	7.659704E-11	4.270758E-11	3.570778E-11	1.106400E2
2018-07-27 11:31:25.000000000	1.986900E-11	9.620147E-11	3.083356E-11	5.066579E-11	1.106400E2
2018-07-27 11:31:35.000000000	3.821282E-11	6.986019E-11	4.215904E-11	2.989530E-11	1.106400E2
2018-07-27 11:31:45.000000000	1.119428E-11	1.049676E-10	1.931811E-11	5.803657E-11	1.106400E2
2018-07-27 11:31:55.000000000	1.199919E-11	9.807926E-11	2.485120E-11	6.177533E-11	1.106400E2
2018-07-27 11:32:05.000000000	3.505500E-11	9.542882E-11	3.664513E-11	3.679147E-11	1.106400E2
2018-07-27 11:32:15.000000000	3.911026E-11	9.174436E-11	3.648288E-11	2.987973E-11	1.106400E2
2018-07-27 11:32:25.000000000	2.649926E-11	9.781812E-11	3.445454E-11	4.000299E-11	1.106400E2
2018-07-27 11:32:35.000000000	3.128899E-11	9.802117E-11	2.819729E-11	3.380630E-11	1.106400E2
2018-07-27 11:32:45.000000000	1.765733E-11	1.093261E-10	1.824840E-11	4.194792E-11	1.106400E2
2018-07-27 11:32:55.000000000	3.343231E-11	9.561344E-11	2.419284E-11	3.043172E-11	1.106400E2
2018-07-27 11:33:05.000000000	4.466483E-11	7.696699E-11	3.564004E-11	2.139214E-11	1.106400E2
2018-07-27 11:33:15.000000000	3.546835E-11	9.084885E-11	2.888147E-11	3.038214E-11	1.106400E2
2018-07-27 11:33:25.000000000	4.820017E-11	8.824016E-11	3.835503E-11	1.366645E-11	1.106400E2
2018-07-27 11:33:35.000000000	5.497456E-11	7.987279E-11	3.974264E-11	9.006526E-12	1.106400E2
2018-07-27 11:33:45.000000000	6.274577E-11	6.619736E-11	4.948042E-11	4.732327E-12	1.106400E2
2018-07-27 11:33:55.000000000	5.128204E-11	9.760156E-11	3.644496E-11	1.856703E-11	1.106400E2
2018-07-27 11:34:05.000000000	5.057368E-11	8.759784E-11	3.875849E-11	1.268057E-11	1.106400E2
2018-07-27 11:34:15.000000000	5.084880E-11	9.513703E-11	3.347226E-11	1.442227E-11	1.106400E2
2018-07-27 11:34:25.000000000	5.822428E-11	8.529416E-11	3.851023E-11	1.355425E-11	1.106400E2
2018-07-27 11:34:35.000000000	6.249693E-11	7.308859E-11	4.685351E-11	2.664436E-12	1.106400E2
2018-07-27 11:34:45.000000000	2.152381E-11	1.230009E-10	2.094977E-11	3.083783E-11	1.106400E2
2018-07-27 11:34:55.000000000	5.657503E-11	9.334956E-11	4.542549E-11	4.026027E-12	1.106400E2
2018-07-27 11:35:05.000000000	6.428577E-11	9.186164E-11	5.114465E-11	7.991574E-12	1.106400E2
2018-07-27 11:35:15.000000000	7.573230E-11	8.280210E-11	4.515556E-11	7.177280E-13	1.106400E2
2018-07-27 11:35:25.000000000	2.273574E-11	1.259132E-10	3.497743E-11	3.252017E-11	1.106400E2
2018-07-27 11:35:35.000000000	7.003857E-11	7.866516E-11	5.732518E-11	-3.116889E-12	1.106400E2
2018-07-27 11:35:45.000000000	7.571536E-11	7.234081E-11	5.727959E-11	-4.438365E-12	1.106400E2
2018-07-27 11:35:55.000000000	6.873144E-11	9.440146E-11	5.117902E-11	5.173877E-12	1.106400E2
2018-07-27 11:36:05.000000000	5.348543E-11	1.136680E-10	3.762649E-11	1.267182E-11	1.106400E2
2018-07-27 11:36:15.000000000	6.931862E-11	9.100130E-11	4.824453E-11	3.679364E-12	1.106400E2
2018-07-27 11:36:25.000000000	7.535533E-11	6.783261E-11	5.742813E-11	-4.727114E-12	1.106400E2
2018-07-27 11:36:35.000000000	4.399969E-11	1.112488E-10	3.884100E-11	1.341695E-11	1.106400E2
2018-07-27 11:36:45.000000000	7.492408E-11	8.574507E-11	6.013157E-11	-3.681639E-12	1.106400E2
2018-07-27 11:36:55.000000000	7.428630E-11	8.802254E-11	5.987932E-11	-8.657683E-13	1.106400E2
2018-07-27 11:37:05.000000000	7.442797E-11	8.112717E-11	6.634243E-11	4.244934E-14	1.106400E2
2018-07-27 11:37:15.000000000	6.104349E-11	9.013824E-11	6.206346E-11	-1.007623E-12	1.106400E2
2018-07-27 11:37:25.000000000	7.883330E-11	8.190913E-11	6.535197E-11	-4.501719E-12	1.106400E2
2018-07-27 11:37:35.000000000	7.824073E-11	7.216560E-11	7.108480E-11	-8.026088E-12	1.106400E2
2018-07-27 11:37:45.000000000	6.361730E-11	9.637754E-11	6.060944E-11	3.041969E-12	1.106400E2
2018-07-27 11:37:55.000000000	6.889451E-11	8.927978E-11	6.541584E-11	2.317170E-12	1.106400E2
2018-07-27 11:38:05.000000000	7.467523E-11	9.163235E-11	6.529164E-11	-1.025334E-12	1.106400E2
2018-07-27 11:38:15.000000000	7.020740E-11	8.667293E-11	6.560732E-11	-4.513843E-12	1.106400E2
2018-07-27 11:38:25.000000000	8.096635E-11	7.745616E-11	7.979402E-11	-1.265839E-11	1.106400E2
2018-07-27 11:38:35.000000000	7.110782E-11	9.202331E-11	6.992755E-11	-2.611194E-12	1.106400E2
2018-07-27 11:38:45.000000000	6.625808E-11	9.336287E-11	7.087184E-11	-4.981068E-12	1.106400E2
2018-07-27 11:38:55.000000000	8.233329E-11	8.397063E-11	7.985399E-11	-1.050327E-11	1.106400E2
2018-07-27 11:39:05.000000000	7.213485E-11	9.335154E-11	6.976634E-11	-6.026051E-12	1.106400E2
2018-07-27 11:39:15.000000000	8.430210E-11	7.027579E-11	8.621780E-11	-1.189537E-11	1.106400E2
2018-07-27 11:39:25.000000000	7.597520E-11	8.254160E-11	7.751405E-11	-5.843440E-12	1.106400E2
2018-07-27 11:39:35.000000000	7.102108E-11	9.096378E-11	7.036809E-11	-3.375953E-12	1.106400E2
2018-07-27 11:39:45.000000000	7.126375E-11	8.398255E-11	8.104594E-11	-3.128800E-12	1.106400E2
2018-07-27 11:39:55.000000000	7.797213E-11	8.256368E-11	8.394257E-11	-1.213941E-11	1.106400E2
2018-07-27 11:40:05.000000000	8.620898E-11	7.348672E-11	8.838464E-11	-1.475585E-11	1.106400E2
2018-07-27 11:40:15.000000000	7.874258E-11	8.643507E-11	8.594620E-11	-1.236343E-11	1.106400E2
2018-07-27 11:40:25.000000000	9.131766E-11	6.535427E-11	1.004736E-10	-1.928072E-11	1.106400E2
2018-07-27 11:40:35.000000000	7.612200E-11	8.805798E-11	8.755040E-11	-9.749484E-12	1.106400E2
2018-07-27 11:40:45.000000000	8.591378E-11	8.117633E-11	8.352340E-11	-1.688713E-11	1.106400E2
2018-07-27 11:40:55.000000000	8.185054E-11	8.266120E-11	8.559700E-11	-1.376914E-11	1.106400E2
2018-07-27 11:41:05.000000000	9.084613E-11	7.481098E-11	8.639911E-11	-1.578030E-11	1.106400E2
2018-07-27 11:41:15.000000000	9.422319E-11	7.087096E-11	9.489511E-11	-1.954881E-11	1.106400E2
2018-07-27 11:41:25.000000000	9.433344E-11	7.559287E-11	8.805013E-11	-2.106890E-11	1.106400E2
2018-07-27 11:41:35.000000000	1.010461E-10	5.780944E-11	1.020509E-10	-2.501863E-11	1.106400E2
2018-07-27 11:41:45.000000000	8.612504E-11	7.760622E-11	8.767941E-11	-1.936060E-11	1.106400E2
2018-07-27 11:41:55.000000000	1.007331E-10	6.808406E-11	9.468154E-11	-2.381806E-11	1.106400E2
2018-07-27 11:42:05.000000000	1.005279E-10	6.819183E-11	9.168194E-11	-2.188179E-11	1.106400E2
2018-07-27 11:42:15.000000000	8.587518E-11	7.987556E-11	8.755682E-11	-1.881372E-11	1.106400E2
2018-07-27 11:42:25.000000000	9.244681E-11	7.596098E-11	8.777358E-11	-2.050358E-11	1.106400E2
2018-07-27 11:42:35.000000000	9.567780E-11	6.295109E-11	1.010344E-10	-2.446278E-11	1.106400E2
2018-07-27 11:42:45.000000000	9.427931E-11	6.518539E-11	1.048244E-10	-2.334670E-11	1.106400E2
2018-07-27 11:42:55.000000000	1.014585E-10	5.474786E-11	1.079895E-10	-2.749780E-11	1.106400E2
2018-07-27 11:43:05.000000000	1.065477E-10	6.017662E-11	9.328172E-11	-2.805264E-11	1.106400E2
2018-07-27 11:43:15.000000000	1.045177E-10	4.935512E-11	1.104952E-10	-2.891618E-11	1.106400E2
2018-07-27 11:43:25.000000000	9.854953E-11	7.119307E-11	9.036002E-11	-2.515262E-11	1.106400E2
2018-07-27 11:43:35.000000000	9.489053E-11	5.560116E-11	1.101643E-10	-2.657298E-11	1.106400E2
2018-07-27 11:43:45.000000000	9.655675E-11	5.826916E-11	1.042037E-10	-2.649948E-11	1.106400E2
2018-07-27 11:43:55.000000000	9.968351E-11	5.622193E-11	1.069547E-10	-2.635006E-11	1.106400E2
2018-07-27 11:44:05.000000000	9.964625E-11	6.217917E-11	1.023878E-10	-2.457755E-11	1.106400E2
2018-07-27 11:44:15.000000000	1.058984E-10	4.714573E-11	1.057672E-10	-2.909490E-11	1.106400E2
2018-07-27 11:44:25.000000000	1.086731E-10	3.821652E-11	1.201602E-10	-2.765630E-11	1.106400E2
2018-07-27 11:44:35.000000000	1.078537E-10	4.365676E-11	1.133427E-10	-2.906272E-11	1.106400E2
2018-07-27 11:44:45.000000000	9.836118E-11	5.182569E-11	1.099756E-10	-2.671541E-11	1.106400E2
2018-07-27 11:44:55.000000000	1.117784E-10	2.897970E-11	1.202608E-10	-3.032447E-11	1.106400E2
2018-07-27 11:45:05.000000000	1.003012E-10	4.978936E-11	1.199041E-10	-2.943052E-11	1.106400E2
2018-07-27 11:45:15.000000000	1.030178E-10	4.342381E-11	1.256342E-10	-2.819610E-11	1.106400E2
2018-07-27 11:45:25.000000000	1.003769E-10	4.014634E-11	1.331014E-10	-2.916643E-11	1.106400E2
2018-07-27 11:45:35.000000000	1.025117E-10	5.397146E-11	1.187121E-10	-2.728944E-11	1.106400E2
2018-07-27 11:45:45.000000000	1.044718E-10	4.418828E-11	1.262912E-10	-2.933366E-11	1.106400E2
2018-07-27 11:45:55.000000000	1.116654E-10	2.223852E-11	1.317816E-10	-3.202691E-11	1.106400E2
2018-07-27 11:46:05.000000000	9.321191E-11	4.952334E-11	1.233068E-10	-2.786024E-11	1.106400E2
2018-07-27 11:46:15.000000000	1.123847E-10	3.247413E-11	1.334768E-10	-3.083258E-11	1.106400E2
2018-07-27 11:46:25.000000000	1.062118E-10	3.791556E-11	1.269579E-10	-2.968570E-11	1.106400E2
2018-07-27 11:46:35.000000000	1.051656E-10	3.644946E-11	1.354047E-10	-3.034891E-11	1.106400E2
2018-07-27 11:46:45.000000000	1.005423E-10	3.334811E-11	1.346365E-10	-3.116028E-11	1.106400E2
2018-07-27 11:46:55.000000000	9.910224E-11	4.206402E-11	1.254546E-10	-2.936339E-11	1.106400E2
2018-07-27 11:47:05.000000000	1.048267E-10	3.788759E-11	1.241568E-10	-2.852066E-11	1.106400E2
2018-07-27 11:47:15.000000000	1.119231E-10	2.593100E-11	1.279531E-10	-3.028730E-11	1.106400E2
2018-07-27 11:47:25.000000000	1.055687E-10	3.190984E-11	1.262002E-10	-2.959187E-11	1.106400E2
2018-07-27 11:47:35.000000000	1.136471E-10	3.199345E-11	1.282901E-10	-3.110895E-11	1.106400E2
2018-07-27 11:47:45.000000000	1.124286E-10	3.139107E-11	1.314917E-10	-3.013272E-11	1.106400E2
2018-07-27 11:47:55.000000000	1.127525E-10	1.745486E-11	1.421713E-10	-3.373102E-11	1.106400E2
2018-07-27 11:48:05.000000000	1.081696E-10	3.183978E-11	1.289886E-10	-3.201874E-11	1.106400E2
2018-07-27 11:48:15.000000000	1.164851E-10	2.627750E-11	1.264623E-10	-3.288555E-11	1.106400E2
2018-07-27 11:48:25.000000000	1.196168E-10	2.943467E-11	1.176468E-10	-3.094736E-11	1.106400E2
2018-07-27 11:48:35.000000000	1.229887E-10	9.094635E-12	1.379597E-10	-3.286637E-11	1.106400E2
2018-07-27 11:48:45.000000000	1.228280E-10	1.422826E-11	1.257915E-10	-3.442671E-11	1.106400E2
2018-07-27 11:48:55.000000000	1.176604E-10	1.967834E-11	1.300654E-10	-3.413437E-11	1.106400E2
2018-07-27 11:49:05.000000000	1.211774E-10	2.773536E-11	1.194793E-10	-3.295055E-11	1.106400E2
2018-07-27 11:49:15.000000000	1.261878E-10	1.203302E-11	1.298629E-10	-3.533040E-11	1.106400E2
2018-07-27 11:49:25.000000000	1.265764E-10	1.616304E-11	1.242282E-10	-3.313843E-11	1.106400E2
2018-07-27 11:49:35.000000000	1.301363E-10	1.249869E-11	1.177662E-10	-3.348249E-11	1.106400E2
2018-07-27 11:49:45.000000000	1.341153E-10	1.395364E-11	1.143935E-10	-3.285038E-11	1.106400E2
2018-07-27 11:49:55.000000000	1.351888E-10	1.349123E-11	1.158175E-10	-3.314098E-11	1.106400E2
2018-07-27 11:50:05.000000000	1.353354E-10	1.117736E-11	1.167802E-10	-3.164421E-11	1.106400E2
2018-07-27 11:50:15.000000000	1.291569E-10	1.916637E-11	1.133515E-10	-3.183634E-11	1.106400E2
2018-07-27 11:50:25.000000000	1.355206E-10	-1.002001E-12	1.177380E-10	-3.102798E-11	1.106400E2