# Created by CSS Data Browser Version 4.2.4.201704181848
# 
# Start Time : 2018-07-27 11:00:00.000 -0400
# End Time   : 2018-07-27 12:10:00.000 -0400
# Source     : Raw Archived Data
# Format     : Exponential (6 digits)
# 
# Data is in TAB-delimited columns, should import into e.g. Excel

# Channel: SCR_BTS35:BCM2_D1542:AVG_RD
# Archives:
# 1) new
#    URL: pbraw://epicsarchiver.frib.msu.edu/retrieval
#    Key: 1
# 
# Channel: SCR_BTS35:BCM3_D1542:AVG_RD
# Archives:
# 1) new
#    URL: pbraw://epicsarchiver.frib.msu.edu/retrieval
#    Key: 1
# 
# Channel: SCR_BTS35:BCM4_D1542:AVG_RD
# Archives:
# 1) new
#    URL: pbraw://epicsarchiver.frib.msu.edu/retrieval
#    Key: 1
# 
# Channel: SCR_BTS35:BCM1_D1542:AVG_RD
# Archives:
# 1) new
#    URL: pbraw://epicsarchiver.frib.msu.edu/retrieval
#    Key: 1
# 

# Time	SCR_BTS35:BCM2_D1542:AVG_RD Value	SCR_BTS35:BCM3_D1542:AVG_RD Value	SCR_BTS35:BCM4_D1542:AVG_RD Value	SCR_BTS35:BCM1_D1542:AVG_RD Value

2018-07-27 10:59:53.177269060	1.762375E-12	2.929151E-12	4.569247E-12	-4.913062E-13
2018-07-27 11:00:01.676619110	1.762375E-12	2.929151E-12	2.429590E-12	-4.913062E-13
2018-07-27 11:00:01.772296424	1.762375E-12	2.929151E-12	3.628612E-12	-4.913062E-13
2018-07-27 11:00:01.876776860	1.762375E-12	2.929151E-12	3.743753E-12	-4.913062E-13
2018-07-27 11:00:01.979942170	1.762375E-12	2.929151E-12	2.751812E-12	-4.913062E-13
2018-07-27 11:00:02.075236892	1.762375E-12	2.929151E-12	3.569275E-12	-4.913062E-13
2018-07-27 11:00:02.180383796	1.783744E-12	2.929151E-12	3.569275E-12	-4.913062E-13
2018-07-27 11:00:02.180879096	1.783744E-12	2.929151E-12	3.476739E-12	-4.913062E-13
2018-07-27 11:00:02.274354073	1.783744E-12	2.929151E-12	3.476739E-12	2.841055E-12
2018-07-27 11:00:02.274586172	1.229763E-12	2.929151E-12	3.476739E-12	2.841055E-12
2018-07-27 11:00:02.274780875	1.229763E-12	2.639562E-12	3.476739E-12	2.841055E-12
2018-07-27 11:00:02.275039507	1.229763E-12	2.639562E-12	3.291085E-12	2.841055E-12
2018-07-27 11:00:02.378785594	1.229763E-12	2.639562E-12	3.291085E-12	2.725482E-12
2018-07-27 11:00:02.378866258	2.296835E-12	2.639562E-12	3.291085E-12	2.725482E-12
2018-07-27 11:00:02.379456382	2.296835E-12	2.895817E-12	3.291085E-12	2.725482E-12
2018-07-27 11:00:02.379877807	2.296835E-12	2.895817E-12	4.125968E-12	2.725482E-12
2018-07-27 11:00:02.476584809	2.296835E-12	2.895817E-12	4.125968E-12	1.975477E-12
2018-07-27 11:00:02.476650794	9.719431E-13	2.895817E-12	4.125968E-12	1.975477E-12
2018-07-27 11:00:02.476784744	9.719431E-13	2.246901E-12	4.125968E-12	1.975477E-12
2018-07-27 11:00:02.476858126	9.719431E-13	2.246901E-12	3.393725E-12	1.975477E-12
2018-07-27 11:00:02.574580178	7.117242E-13	2.246901E-12	3.393725E-12	1.975477E-12
2018-07-27 11:00:02.574698635	7.117242E-13	2.822101E-12	3.393725E-12	1.975477E-12
2018-07-27 11:00:02.574711840	7.117242E-13	2.822101E-12	3.393725E-12	1.769274E-12
2018-07-27 11:00:02.574809528	7.117242E-13	2.822101E-12	3.230304E-12	1.769274E-12
2018-07-27 11:00:02.668250102	7.117242E-13	2.822101E-12	3.230304E-12	2.092436E-12
2018-07-27 11:00:02.668304653	1.076788E-12	2.822101E-12	3.230304E-12	2.092436E-12
2018-07-27 11:00:02.668382026	1.076788E-12	2.735049E-12	3.230304E-12	2.092436E-12
2018-07-27 11:00:02.668572848	1.076788E-12	2.735049E-12	3.964648E-12	2.092436E-12
2018-07-27 11:00:02.775596456	1.076788E-12	2.735049E-12	3.964648E-12	2.049088E-12
2018-07-27 11:00:02.775744491	1.590669E-12	2.735049E-12	3.964648E-12	2.049088E-12
2018-07-27 11:00:02.776159054	1.590669E-12	1.451954E-12	3.964648E-12	2.049088E-12
2018-07-27 11:00:02.881121058	1.590669E-12	1.451954E-12	3.964648E-12	2.696067E-12
2018-07-27 11:00:02.881412372	1.869977E-12	1.451954E-12	3.964648E-12	2.696067E-12
2018-07-27 11:00:02.881786166	1.869977E-12	2.797365E-12	3.964648E-12	2.696067E-12
2018-07-27 11:00:02.973537947	1.869977E-12	2.797365E-12	3.964648E-12	2.368480E-12
2018-07-27 11:00:02.973816837	1.340553E-12	2.797365E-12	3.964648E-12	2.368480E-12
2018-07-27 11:00:02.974152349	1.340553E-12	2.029285E-12	3.964648E-12	2.368480E-12
2018-07-27 11:00:03.073987683	1.340553E-12	2.029285E-12	3.964648E-12	1.230896E-12
2018-07-27 11:00:03.074128032	1.884624E-12	2.029285E-12	3.964648E-12	1.230896E-12
2018-07-27 11:00:03.074454445	1.884624E-12	2.947614E-12	3.964648E-12	1.230896E-12
2018-07-27 11:00:03.175714716	1.884624E-12	2.947614E-12	3.964648E-12	2.298936E-12
2018-07-27 11:00:03.176134975	9.124130E-13	2.947614E-12	3.964648E-12	2.298936E-12
2018-07-27 11:00:03.176919191	9.124130E-13	2.861127E-12	3.964648E-12	2.298936E-12
2018-07-27 11:00:03.274752679	9.124130E-13	2.601624E-12	3.964648E-12	2.298936E-12
2018-07-27 11:00:03.275187463	9.124130E-13	2.601624E-12	3.964648E-12	1.530215E-12
2018-07-27 11:00:11.973877719	1.309097E-12	2.601624E-12	3.964648E-12	1.530215E-12
2018-07-27 11:00:11.974103047	1.309097E-12	2.601624E-12	1.667455E-12	1.530215E-12
2018-07-27 11:00:12.070508958	1.765519E-12	2.601624E-12	1.667455E-12	1.530215E-12
2018-07-27 11:00:12.070933777	1.765519E-12	2.094939E-12	1.667455E-12	1.530215E-12
2018-07-27 11:00:12.071210993	1.765519E-12	2.094939E-12	9.568334E-13	1.530215E-12
2018-07-27 11:00:12.177273272	2.048329E-12	2.094939E-12	9.568334E-13	1.530215E-12
2018-07-27 11:00:12.177725459	2.048329E-12	2.235338E-12	9.568334E-13	1.530215E-12
2018-07-27 11:00:12.178062683	2.048329E-12	2.235338E-12	1.684040E-12	1.530215E-12
2018-07-27 11:00:12.274453372	1.936227E-12	2.235338E-12	1.684040E-12	1.530215E-12
2018-07-27 11:00:12.274653303	1.936227E-12	1.981258E-12	1.684040E-12	1.530215E-12
2018-07-27 11:00:12.274948887	1.936227E-12	1.981258E-12	1.720339E-12	1.530215E-12
2018-07-27 11:00:12.367630289	1.936227E-12	1.981258E-12	2.052099E-12	1.530215E-12
2018-07-27 11:00:12.367707430	2.117872E-12	1.981258E-12	2.052099E-12	1.530215E-12
2018-07-27 11:00:12.367851407	2.117872E-12	2.236605E-12	2.052099E-12	1.530215E-12
2018-07-27 11:00:12.472048471	2.117872E-12	2.236605E-12	2.052099E-12	2.987832E-13
2018-07-27 11:00:12.472128875	2.117872E-12	1.265511E-12	2.052099E-12	2.987832E-13
2018-07-27 11:00:12.472213118	2.207622E-12	1.265511E-12	2.052099E-12	2.987832E-13
2018-07-27 11:00:12.472316956	2.207622E-12	1.265511E-12	1.339108E-12	2.987832E-13
2018-07-27 11:00:12.569620399	2.207622E-12	1.265511E-12	1.339108E-12	3.795475E-13
2018-07-27 11:00:12.569755029	1.778767E-12	1.265511E-12	1.339108E-12	3.795475E-13
2018-07-27 11:00:12.569888465	1.778767E-12	9.237975E-13	1.339108E-12	3.795475E-13
2018-07-27 11:00:12.570034419	1.778767E-12	9.237975E-13	1.692384E-12	3.795475E-13
2018-07-27 11:00:12.669254368	2.179265E-12	9.237975E-13	1.692384E-12	3.795475E-13
2018-07-27 11:00:12.669277875	2.179265E-12	9.231269E-13	1.692384E-12	3.795475E-13
2018-07-27 11:00:12.669519012	2.179265E-12	9.231269E-13	2.700672E-12	3.795475E-13
2018-07-27 11:00:12.669929032	2.179265E-12	9.231269E-13	2.700672E-12	5.521774E-13
2018-07-27 11:00:12.772240650	2.179265E-12	9.231269E-13	2.700672E-12	1.090050E-12
2018-07-27 11:00:12.772523619	1.049221E-12	9.231269E-13	2.700672E-12	1.090050E-12
2018-07-27 11:00:12.772926716	1.049221E-12	9.231269E-13	1.410544E-12	1.090050E-12
2018-07-27 11:00:12.773046557	1.049221E-12	6.179661E-13	1.410544E-12	1.090050E-12
2018-07-27 11:00:12.877219583	1.049221E-12	6.179661E-13	1.410544E-12	3.231168E-13
2018-07-27 11:00:12.877704797	1.116306E-12	6.179661E-13	1.410544E-12	3.231168E-13
2018-07-27 11:00:12.878157552	1.116306E-12	1.575738E-12	1.410544E-12	3.231168E-13
2018-07-27 11:00:12.878340480	1.116306E-12	1.575738E-12	1.897916E-12	3.231168E-13
2018-07-27 11:00:12.980086050	1.116306E-12	1.575738E-12	1.897916E-12	7.590204E-13
2018-07-27 11:00:12.980413271	1.657560E-12	1.575738E-12	1.897916E-12	7.590204E-13
2018-07-27 11:00:12.980778265	1.657560E-12	2.105400E-12	1.897916E-12	7.590204E-13
2018-07-27 11:00:12.980970052	1.657560E-12	2.105400E-12	2.622485E-12	7.590204E-13
2018-07-27 11:00:13.075305176	1.657560E-12	2.105400E-12	2.622485E-12	8.325279E-13
2018-07-27 11:00:13.075896816	1.657560E-12	8.775741E-13	2.622485E-12	8.325279E-13
2018-07-27 11:00:13.173862799	1.657560E-12	8.775741E-13	2.622485E-12	-2.295971E-13
2018-07-27 11:00:13.280409376	1.657560E-12	8.775741E-13	2.622485E-12	1.285404E-12
2018-07-27 11:00:13.376160269	1.657560E-12	8.775741E-13	2.622485E-12	6.739199E-13
2018-07-27 11:00:13.476428389	1.657560E-12	8.775741E-13	2.622485E-12	1.972616E-13
2018-07-27 11:00:21.972947828	1.657560E-12	8.775741E-13	4.522920E-12	1.972616E-13
2018-07-27 11:00:22.074484451	1.657560E-12	2.413958E-12	4.522920E-12	1.972616E-13
2018-07-27 11:00:22.074752939	3.077820E-12	2.413958E-12	4.522920E-12	1.972616E-13
2018-07-27 11:00:22.075225204	3.077820E-12	2.413958E-12	5.029216E-12	1.972616E-13
2018-07-27 11:00:22.178880461	3.099844E-12	2.413958E-12	5.029216E-12	1.972616E-13
2018-07-27 11:00:22.179092861	3.099844E-12	3.456980E-12	5.029216E-12	1.972616E-13
2018-07-27 11:00:22.179476726	3.099844E-12	3.456980E-12	4.917517E-12	1.972616E-13
2018-07-27 11:00:22.276370113	3.099844E-12	3.456980E-12	4.359871E-12	1.972616E-13
2018-07-27 11:00:22.276385866	1.676679E-12	3.456980E-12	4.359871E-12	1.972616E-13
2018-07-27 11:00:22.276619453	1.676679E-12	2.368823E-12	4.359871E-12	1.972616E-13
2018-07-27 11:00:22.379378718	1.883596E-12	2.368823E-12	4.359871E-12	1.972616E-13
2018-07-27 11:00:22.379673774	1.883596E-12	1.936451E-12	4.359871E-12	1.972616E-13
2018-07-27 11:00:22.379687990	1.883596E-12	1.936451E-12	3.840134E-12	1.972616E-13
2018-07-27 11:00:22.471367680	1.950160E-12	1.936451E-12	3.840134E-12	1.972616E-13
2018-07-27 11:00:22.471518266	1.950160E-12	1.465917E-12	3.840134E-12	1.972616E-13
2018-07-27 11:00:22.471598400	1.950160E-12	1.465917E-12	5.160481E-12	1.972616E-13
2018-07-27 11:00:22.572822280	1.950160E-12	1.465917E-12	5.160481E-12	4.665419E-12
2018-07-27 11:00:22.573044386	1.066476E-12	1.465917E-12	5.160481E-12	4.665419E-12
2018-07-27 11:00:22.573379789	1.066476E-12	2.627626E-12	5.160481E-12	4.665419E-12
2018-07-27 11:00:22.573645007	1.066476E-12	2.627626E-12	5.083665E-12	4.665419E-12
2018-07-27 11:00:22.675992503	1.066476E-12	2.627626E-12	5.083665E-12	4.458323E-12
2018-07-27 11:00:22.676238538	9.037554E-13	2.627626E-12	5.083665E-12	4.458323E-12
2018-07-27 11:00:22.676672952	9.037554E-13	2.788126E-12	5.083665E-12	4.458323E-12
2018-07-27 11:00:22.677305593	9.037554E-13	2.788126E-12	4.037023E-12	4.458323E-12
2018-07-27 11:00:22.779935933	9.037554E-13	2.788126E-12	4.037023E-12	4.022956E-12
2018-07-27 11:00:22.779999072	1.574203E-12	2.788126E-12	4.037023E-12	4.022956E-12
2018-07-27 11:00:22.780106374	1.574203E-12	3.243953E-12	4.037023E-12	4.022956E-12
2018-07-27 11:00:22.780189723	1.574203E-12	3.243953E-12	4.489020E-12	4.022956E-12
2018-07-27 11:00:22.877121501	1.574203E-12	3.243953E-12	3.576949E-12	4.022956E-12
2018-07-27 11:00:22.877259809	1.574203E-12	3.243953E-12	3.576949E-12	2.968773E-12
2018-07-27 11:00:22.877282776	1.574203E-12	9.715855E-13	3.576949E-12	2.968773E-12
2018-07-27 11:00:22.877376984	1.648068E-12	9.715855E-13	3.576949E-12	2.968773E-12
2018-07-27 11:00:22.971323282	1.648068E-12	9.715855E-13	2.856404E-12	2.968773E-12
2018-07-27 11:00:22.971487528	2.744347E-13	9.715855E-13	2.856404E-12	2.968773E-12
2018-07-27 11:00:22.971538911	2.744347E-13	9.715855E-13	2.856404E-12	3.117979E-12
2018-07-27 11:00:22.971637632	2.744347E-13	1.876697E-12	2.856404E-12	3.117979E-12
2018-07-27 11:00:23.078554135	2.744347E-13	1.876697E-12	2.856404E-12	3.535777E-12
2018-07-27 11:00:23.078860234	1.421958E-12	1.876697E-12	2.856404E-12	3.535777E-12
2018-07-27 11:00:23.079097350	1.421958E-12	1.966462E-12	2.856404E-12	3.535777E-12
2018-07-27 11:00:23.177917814	1.421958E-12	1.966462E-12	2.856404E-12	4.092857E-12
2018-07-27 11:00:23.272813629	1.421958E-12	1.966462E-12	2.856404E-12	3.428817E-12
2018-07-27 11:00:23.371912753	1.421958E-12	1.966462E-12	2.856404E-12	3.730133E-12
2018-07-27 11:00:23.476969701	1.421958E-12	1.966462E-12	2.856404E-12	3.189966E-12
2018-07-27 11:00:23.572419584	1.421958E-12	1.966462E-12	2.856404E-12	2.184406E-12
2018-07-27 11:00:31.575780888	1.421958E-12	1.966462E-12	3.157482E-12	2.184406E-12
2018-07-27 11:00:31.672925203	1.215950E-12	1.966462E-12	3.157482E-12	2.184406E-12
2018-07-27 11:00:31.673132585	1.215950E-12	1.682520E-12	3.157482E-12	2.184406E-12
2018-07-27 11:00:31.673373968	1.215950E-12	1.682520E-12	3.016979E-12	2.184406E-12
2018-07-27 11:00:31.768288000	9.276718E-13	1.682520E-12	3.016979E-12	2.184406E-12
2018-07-27 11:00:31.768425044	9.276718E-13	2.845123E-12	3.016979E-12	2.184406E-12
2018-07-27 11:00:31.768522906	9.276718E-13	2.845123E-12	2.954036E-12	2.184406E-12
2018-07-27 11:00:31.872207323	6.844401E-13	2.845123E-12	2.954036E-12	2.184406E-12
2018-07-27 11:00:31.872320119	6.844401E-13	2.845123E-12	3.201261E-12	2.184406E-12
2018-07-27 11:00:31.872466947	6.844401E-13	3.433481E-12	3.201261E-12	2.184406E-12
2018-07-27 11:00:31.974761910	6.844401E-13	2.634257E-12	3.201261E-12	2.184406E-12
2018-07-27 11:00:31.975048152	7.967800E-13	2.634257E-12	3.201261E-12	2.184406E-12
2018-07-27 11:00:31.975222031	7.967800E-13	2.634257E-12	1.972809E-12	2.184406E-12
2018-07-27 11:00:32.069710857	1.728252E-12	2.634257E-12	1.972809E-12	2.184406E-12
2018-07-27 11:00:32.070298960	1.728252E-12	3.581479E-12	1.972809E-12	2.184406E-12
2018-07-27 11:00:32.073922856	1.728252E-12	3.581479E-12	2.682582E-12	2.184406E-12
2018-07-27 11:00:32.177086386	1.728252E-12	3.581479E-12	1.888260E-12	2.184406E-12
2018-07-27 11:00:32.177175162	1.728252E-12	3.153041E-12	1.888260E-12	2.184406E-12
2018-07-27 11:00:32.177320181	1.728252E-12	3.153041E-12	1.888260E-12	2.703741E-12
2018-07-27 11:00:32.177332933	2.157345E-12	3.153041E-12	1.888260E-12	2.703741E-12
2018-07-27 11:00:32.270418734	2.157345E-12	3.153041E-12	1.888260E-12	2.675623E-12
2018-07-27 11:00:32.270643755	4.001558E-13	3.153041E-12	1.888260E-12	2.675623E-12
2018-07-27 11:00:32.270931379	4.001558E-13	1.695797E-12	1.888260E-12	2.675623E-12
2018-07-27 11:00:32.271189687	4.001558E-13	1.695797E-12	2.450645E-12	2.675623E-12
2018-07-27 11:00:32.370897177	4.001558E-13	1.695797E-12	2.450645E-12	2.618358E-12
2018-07-27 11:00:32.371552641	9.687245E-13	1.695797E-12	2.450645E-12	2.618358E-12
2018-07-27 11:00:32.371825805	9.687245E-13	1.695797E-12	2.456933E-12	2.618358E-12
2018-07-27 11:00:32.372070424	9.687245E-13	1.880914E-12	2.456933E-12	2.618358E-12
2018-07-27 11:00:32.472978744	9.687245E-13	1.880914E-12	2.456933E-12	2.607882E-12
2018-07-27 11:00:32.473270590	5.490035E-13	1.880914E-12	2.456933E-12	2.607882E-12
2018-07-27 11:00:32.473545451	5.490035E-13	1.636177E-12	2.456933E-12	2.607882E-12
2018-07-27 11:00:32.473758361	5.490035E-13	1.636177E-12	1.462027E-12	2.607882E-12
2018-07-27 11:00:32.578104362	5.490035E-13	1.636177E-12	1.462027E-12	2.538785E-12
2018-07-27 11:00:32.578692881	5.490035E-13	1.305893E-12	1.462027E-12	2.538785E-12
2018-07-27 11:00:32.578913640	5.430877E-13	1.305893E-12	1.462027E-12	2.538785E-12
2018-07-27 11:00:32.579244067	5.430877E-13	1.305893E-12	1.452565E-12	2.538785E-12
2018-07-27 11:00:32.674052655	5.430877E-13	1.305893E-12	1.452565E-12	2.843544E-12
2018-07-27 11:00:32.674276508	1.315728E-12	1.305893E-12	1.452565E-12	2.843544E-12
2018-07-27 11:00:32.674453687	1.315728E-12	2.250180E-12	1.452565E-12	2.843544E-12
2018-07-27 11:00:32.780135326	1.315728E-12	2.250180E-12	1.452565E-12	1.215354E-12
2018-07-27 11:00:32.877761499	1.315728E-12	2.250180E-12	1.452565E-12	3.296345E-12
2018-07-27 11:00:32.974491716	1.315728E-12	2.250180E-12	1.452565E-12	2.666280E-12
2018-07-27 11:00:33.070236959	1.315728E-12	2.250180E-12	1.452565E-12	2.900183E-12
2018-07-27 11:00:33.177520120	1.315728E-12	2.250180E-12	1.452565E-12	2.571374E-12
2018-07-27 11:00:42.072556167	3.987998E-13	2.250180E-12	1.452565E-12	2.571374E-12
2018-07-27 11:00:42.072657145	3.987998E-13	1.771942E-12	1.452565E-12	2.571374E-12
2018-07-27 11:00:42.072755820	3.987998E-13	1.771942E-12	2.778560E-12	2.571374E-12
2018-07-27 11:00:42.174596285	3.907084E-14	1.771942E-12	2.778560E-12	2.571374E-12
2018-07-27 11:00:42.174810703	3.907084E-14	2.098978E-12	2.778560E-12	2.571374E-12
2018-07-27 11:00:42.174906292	3.907084E-14	2.098978E-12	2.427682E-12	2.571374E-12
2018-07-27 11:00:42.279623715	6.471872E-13	2.098978E-12	2.427682E-12	2.571374E-12
2018-07-27 11:00:42.279640378	6.471872E-13	1.937702E-12	2.427682E-12	2.571374E-12
2018-07-27 11:00:42.280200010	6.471872E-13	1.937702E-12	2.749547E-12	2.571374E-12
2018-07-27 11:00:42.372789196	7.749200E-13	1.937702E-12	2.749547E-12	2.571374E-12
2018-07-27 11:00:42.372980729	7.749200E-13	2.060533E-12	2.749547E-12	2.571374E-12
2018-07-27 11:00:42.373192415	7.749200E-13	2.060533E-12	2.834573E-12	2.571374E-12
2018-07-27 11:00:42.471613997	1.104176E-14	2.060533E-12	2.834573E-12	2.571374E-12
2018-07-27 11:00:42.471694071	1.104176E-14	2.060533E-12	2.834573E-12	6.169677E-13
2018-07-27 11:00:42.472342134	1.104176E-14	2.060533E-12	1.328707E-12	6.169677E-13
2018-07-27 11:00:42.472738018	1.104176E-14	2.097487E-12	1.328707E-12	6.169677E-13
2018-07-27 11:00:42.574197739	1.104176E-14	2.097487E-12	1.328707E-12	1.776740E-12
2018-07-27 11:00:42.574256401	1.104176E-14	1.042143E-12	1.328707E-12	1.776740E-12
2018-07-27 11:00:42.574465687	8.768886E-13	1.042143E-12	1.328707E-12	1.776740E-12
2018-07-27 11:00:42.574867906	8.768886E-13	1.042143E-12	1.414791E-12	1.776740E-12
2018-07-27 11:00:42.680810788	8.768886E-13	1.042143E-12	1.414791E-12	1.477450E-12
2018-07-27 11:00:42.681288170	1.086041E-12	1.042143E-12	1.414791E-12	1.477450E-12
2018-07-27 11:00:42.681534079	1.086041E-12	7.255524E-13	1.414791E-12	1.477450E-12
2018-07-27 11:00:42.681797583	1.086041E-12	7.255524E-13	2.557769E-12	1.477450E-12
2018-07-27 11:00:42.775303830	1.086041E-12	1.869157E-12	2.557769E-12	1.477450E-12
2018-07-27 11:00:42.775451731	7.605553E-14	1.869157E-12	2.557769E-12	1.477450E-12
2018-07-27 11:00:42.775945207	7.605553E-14	1.869157E-12	2.541736E-12	1.477450E-12
2018-07-27 11:00:42.776473960	7.605553E-14	1.869157E-12	2.541736E-12	1.137733E-12
2018-07-27 11:00:42.873148720	7.605553E-14	1.869157E-12	2.541736E-12	1.852542E-12
2018-07-27 11:00:42.873688458	2.049655E-13	1.869157E-12	2.541736E-12	1.852542E-12
2018-07-27 11:00:42.874039466	2.049655E-13	2.418175E-12	2.541736E-12	1.852542E-12
2018-07-27 11:00:42.874277483	2.049655E-13	2.418175E-12	2.617896E-12	1.852542E-12
2018-07-27 11:00:42.973822916	2.049655E-13	2.418175E-12	2.617896E-12	2.071455E-12
2018-07-27 11:00:42.974067705	2.049655E-13	2.995700E-12	2.617896E-12	2.071455E-12
2018-07-27 11:00:42.974221154	1.629889E-13	2.995700E-12	2.617896E-12	2.071455E-12
2018-07-27 11:00:42.974465410	1.629889E-13	2.995700E-12	3.203958E-12	2.071455E-12
2018-07-27 11:00:43.074868090	1.629889E-13	2.415866E-12	3.203958E-12	2.071455E-12
2018-07-27 11:00:43.074945359	1.629889E-13	2.415866E-12	3.203958E-12	1.832992E-12
2018-07-27 11:00:43.075154488	1.629889E-13	2.415866E-12	2.286166E-12	1.832992E-12
2018-07-27 11:00:43.075238565	3.606528E-13	2.415866E-12	2.286166E-12	1.832992E-12
2018-07-27 11:00:43.173696925	3.606528E-13	2.415866E-12	2.286166E-12	1.374036E-12
2018-07-27 11:00:43.278289893	3.606528E-13	2.415866E-12	2.286166E-12	2.293780E-12
2018-07-27 11:00:43.381170166	3.606528E-13	2.415866E-12	2.286166E-12	1.063108E-12
2018-07-27 11:00:43.476185448	3.606528E-13	2.415866E-12	2.286166E-12	1.960561E-12
2018-07-27 11:00:51.575867994	3.606528E-13	2.415866E-12	1.818612E-12	1.960561E-12
2018-07-27 11:00:51.672056592	1.023680E-12	2.415866E-12	1.818612E-12	1.960561E-12
2018-07-27 11:00:51.672626320	1.023680E-12	2.415866E-12	2.210036E-12	1.960561E-12
2018-07-27 11:00:51.777374773	4.198551E-13	2.415866E-12	2.210036E-12	1.960561E-12
2018-07-27 11:00:51.777974524	4.198551E-13	2.415866E-12	3.124848E-12	1.960561E-12
2018-07-27 11:00:51.870688669	-5.395710E-13	2.415866E-12	3.124848E-12	1.960561E-12
2018-07-27 11:00:51.870894071	-5.395710E-13	2.415866E-12	1.077205E-12	1.960561E-12
2018-07-27 11:00:51.969279975	1.720786E-13	2.415866E-12	1.077205E-12	1.960561E-12
2018-07-27 11:00:51.969443913	1.720786E-13	2.415866E-12	1.758799E-12	1.960561E-12
2018-07-27 11:00:51.969574996	1.720786E-13	4.070148E-12	1.758799E-12	1.960561E-12
2018-07-27 11:00:52.074455287	1.720786E-13	4.070148E-12	1.758799E-12	2.967626E-12
2018-07-27 11:00:52.074688230	2.242625E-13	4.070148E-12	1.758799E-12	2.967626E-12
2018-07-27 11:00:52.074892945	2.242625E-13	3.642261E-12	1.758799E-12	2.967626E-12
2018-07-27 11:00:52.075200963	2.242625E-13	3.642261E-12	1.869768E-12	2.967626E-12
2018-07-27 11:00:52.170898009	2.242625E-13	3.642261E-12	1.428604E-12	2.967626E-12
2018-07-27 11:00:52.171000004	1.198679E-12	3.642261E-12	1.428604E-12	2.967626E-12
2018-07-27 11:00:52.171125485	1.198679E-12	3.642261E-12	1.428604E-12	2.708063E-12
2018-07-27 11:00:52.171452999	1.198679E-12	3.612250E-12	1.428604E-12	2.708063E-12
2018-07-27 11:00:52.275568099	1.198679E-12	3.612250E-12	1.428604E-12	1.523376E-12
2018-07-27 11:00:52.276109308	1.198679E-12	3.612250E-12	1.837537E-12	1.523376E-12
2018-07-27 11:00:52.276224401	1.198679E-12	2.934620E-12	1.837537E-12	1.523376E-12
2018-07-27 11:00:52.276362083	1.047626E-12	2.934620E-12	1.837537E-12	1.523376E-12
2018-07-27 11:00:52.368343559	1.224503E-12	2.934620E-12	1.837537E-12	1.523376E-12
2018-07-27 11:00:52.368620425	1.224503E-12	2.934620E-12	1.837537E-12	2.645388E-12
2018-07-27 11:00:52.369046179	1.224503E-12	3.130555E-12	1.837537E-12	2.645388E-12
2018-07-27 11:00:52.369429430	1.224503E-12	3.130555E-12	1.460716E-12	2.645388E-12
2018-07-27 11:00:52.475462903	9.392351E-13	3.130555E-12	1.460716E-12	2.645388E-12
2018-07-27 11:00:52.475832550	9.392351E-13	3.130555E-12	1.460716E-12	2.790496E-12
2018-07-27 11:00:52.476225019	9.392351E-13	3.957495E-12	1.460716E-12	2.790496E-12
2018-07-27 11:00:52.476561315	9.392351E-13	3.957495E-12	1.560196E-12	2.790496E-12
2018-07-27 11:00:52.578482952	9.392351E-13	3.957495E-12	1.560196E-12	2.683237E-12
2018-07-27 11:00:52.578916977	1.654461E-12	3.957495E-12	1.560196E-12	2.683237E-12
2018-07-27 11:00:52.579099451	1.654461E-12	2.572730E-12	1.560196E-12	2.683237E-12
2018-07-27 11:00:52.579385933	1.654461E-12	2.572730E-12	2.804041E-12	2.683237E-12
2018-07-27 11:00:52.674415621	1.654461E-12	2.572730E-12	2.804041E-12	1.965821E-12
2018-07-27 11:00:52.674603035	2.609938E-13	2.572730E-12	2.804041E-12	1.965821E-12
2018-07-27 11:00:52.674864229	2.609938E-13	2.872601E-12	2.804041E-12	1.965821E-12
2018-07-27 11:00:52.774004127	2.609938E-13	2.872601E-12	2.804041E-12	3.355742E-12
2018-07-27 11:00:52.774041389	2.609938E-13	3.184423E-12	2.804041E-12	3.355742E-12
2018-07-27 11:00:52.872049700	2.609938E-13	3.184423E-12	2.804041E-12	2.302408E-12
2018-07-27 11:00:52.872235287	2.609938E-13	2.433211E-12	2.804041E-12	2.302408E-12
2018-07-27 11:00:52.974684233	2.609938E-13	2.433211E-12	2.804041E-12	1.151681E-12
2018-07-27 11:00:52.974965214	2.609938E-13	2.780303E-12	2.804041E-12	1.151681E-12
2018-07-27 11:00:53.074792168	2.609938E-13	2.780303E-12	2.804041E-12	1.656741E-12
2018-07-27 11:01:01.575656146	2.609938E-13	2.780303E-12	2.710909E-12	1.656741E-12
2018-07-27 11:01:01.679422782	2.609938E-13	2.780303E-12	3.235757E-12	1.656741E-12
2018-07-27 11:01:01.776790001	2.609938E-13	2.780303E-12	2.541289E-12	1.656741E-12
2018-07-27 11:01:01.870325168	2.609938E-13	2.780303E-12	2.696067E-12	1.656741E-12
2018-07-27 11:01:01.979675548	5.523264E-13	2.780303E-12	2.696067E-12	1.656741E-12
2018-07-27 11:01:01.980063686	5.523264E-13	2.780303E-12	2.279520E-12	1.656741E-12
2018-07-27 11:01:02.068900454	5.021691E-13	2.780303E-12	2.279520E-12	1.656741E-12
2018-07-27 11:01:02.068953599	5.021691E-13	2.985954E-12	2.279520E-12	1.656741E-12
2018-07-27 11:01:02.069338640	5.021691E-13	2.985954E-12	1.648799E-12	1.656741E-12
2018-07-27 11:01:02.069628724	5.021691E-13	2.985954E-12	1.648799E-12	1.175091E-12
2018-07-27 11:01:02.174085146	5.021691E-13	2.985954E-12	6.781965E-13	1.175091E-12
2018-07-27 11:01:02.174200962	5.021691E-13	2.133057E-12	6.781965E-13	1.175091E-12
2018-07-27 11:01:02.174276804	5.021691E-13	2.133057E-12	6.781965E-13	6.051809E-13
2018-07-27 11:01:02.174465836	1.544774E-12	2.133057E-12	6.781965E-13	6.051809E-13
2018-07-27 11:01:02.274989068	1.544774E-12	2.133057E-12	6.781965E-13	1.461133E-12
2018-07-27 11:01:02.275084812	-3.139675E-14	2.133057E-12	6.781965E-13	1.461133E-12
2018-07-27 11:01:02.275166952	-3.139675E-14	2.122670E-12	6.781965E-13	1.461133E-12
2018-07-27 11:01:02.275316621	-3.139675E-14	2.122670E-12	1.472726E-12	1.461133E-12
2018-07-27 11:01:02.377550953	-3.139675E-14	2.122670E-12	1.472726E-12	1.921281E-12
2018-07-27 11:01:02.377915923	7.541180E-13	2.122670E-12	1.472726E-12	1.921281E-12
2018-07-27 11:01:02.378427770	7.541180E-13	2.795979E-12	1.472726E-12	1.921281E-12
2018-07-27 11:01:02.379000715	7.541180E-13	2.795979E-12	1.586482E-12	1.921281E-12
2018-07-27 11:01:02.479144191	7.541180E-13	2.795979E-12	1.586482E-12	2.601445E-12
2018-07-27 11:01:02.479239055	4.629940E-13	2.795979E-12	1.586482E-12	2.601445E-12
2018-07-27 11:01:02.479583606	4.629940E-13	2.103731E-12	1.586482E-12	2.601445E-12
2018-07-27 11:01:02.479627623	4.629940E-13	2.103731E-12	1.458257E-12	2.601445E-12
2018-07-27 11:01:02.574367853	4.629940E-13	2.103731E-12	1.458257E-12	1.278326E-12
2018-07-27 11:01:02.574719065	3.978759E-13	2.103731E-12	1.458257E-12	1.278326E-12
2018-07-27 11:01:02.574912109	3.978759E-13	2.271399E-12	1.458257E-12	1.278326E-12
2018-07-27 11:01:02.575157575	3.978759E-13	2.271399E-12	2.056986E-12	1.278326E-12
2018-07-27 11:01:02.677188409	3.978759E-13	2.240077E-12	2.056986E-12	1.278326E-12
2018-07-27 11:01:02.677333080	3.978759E-13	2.240077E-12	2.056986E-12	2.096936E-12
2018-07-27 11:01:02.678501804	9.524524E-13	2.240077E-12	2.056986E-12	2.096936E-12
2018-07-27 11:01:02.776123282	-8.372962E-14	2.240077E-12	2.056986E-12	2.096936E-12
2018-07-27 11:01:02.776185112	-8.372962E-14	2.694041E-12	2.056986E-12	2.096936E-12
2018-07-27 11:01:02.776352327	-8.372962E-14	2.694041E-12	2.056986E-12	1.573533E-12
2018-07-27 11:01:02.873397372	-8.372962E-14	2.694041E-12	2.056986E-12	1.461491E-12
2018-07-27 11:01:02.873499317	7.303059E-13	2.694041E-12	2.056986E-12	1.461491E-12
2018-07-27 11:01:02.873654292	7.303059E-13	2.622962E-12	2.056986E-12	1.461491E-12
2018-07-27 11:01:02.971240176	7.303059E-13	1.458585E-12	2.056986E-12	1.461491E-12
2018-07-27 11:01:02.971343634	4.518181E-13	1.458585E-12	2.056986E-12	1.461491E-12
2018-07-27 11:01:02.971465708	4.518181E-13	1.458585E-12	2.056986E-12	1.650915E-12
2018-07-27 11:01:03.074400342	4.518181E-13	1.458585E-12	2.056986E-12	1.430899E-12
2018-07-27 11:01:03.074984969	4.518181E-13	2.027690E-12	2.056986E-12	1.430899E-12
2018-07-27 11:01:11.975284945	4.518181E-13	2.027690E-12	3.394499E-12	1.430899E-12
2018-07-27 11:01:12.075171701	4.518181E-13	2.027690E-12	3.083453E-12	1.430899E-12
2018-07-27 11:01:12.169339261	4.518181E-13	2.027690E-12	4.422009E-12	1.430899E-12
2018-07-27 11:01:12.275566779	4.518181E-13	2.027690E-12	3.895283E-12	1.430899E-12
2018-07-27 11:01:12.376892092	4.518181E-13	2.027690E-12	3.645971E-12	1.430899E-12
2018-07-27 11:01:12.470725186	4.518181E-13	2.027690E-12	4.683986E-12	1.430899E-12
2018-07-27 11:01:12.470913848	1.940280E-12	2.027690E-12	4.683986E-12	1.430899E-12
2018-07-27 11:01:12.471185785	1.940280E-12	3.082410E-12	4.683986E-12	1.430899E-12
2018-07-27 11:01:12.571820191	1.940280E-12	3.082410E-12	4.683986E-12	1.543149E-12
2018-07-27 11:01:12.572181998	1.224145E-12	3.082410E-12	4.683986E-12	1.543149E-12
2018-07-27 11:01:12.572555225	1.224145E-12	2.264053E-12	4.683986E-12	1.543149E-12
2018-07-27 11:01:12.573104864	1.224145E-12	2.264053E-12	4.084677E-12	1.543149E-12
2018-07-27 11:01:12.676409099	1.224145E-12	2.264053E-12	4.084677E-12	2.153516E-12
2018-07-27 11:01:12.676518012	1.853868E-12	2.264053E-12	4.084677E-12	2.153516E-12
2018-07-27 11:01:12.676620487	1.853868E-12	2.600357E-12	4.084677E-12	2.153516E-12
2018-07-27 11:01:12.676762636	1.853868E-12	2.600357E-12	3.630742E-12	2.153516E-12
2018-07-27 11:01:12.776945895	8.041114E-13	2.600357E-12	3.630742E-12	2.153516E-12
2018-07-27 11:01:12.777049335	8.041114E-13	2.600357E-12	3.630742E-12	3.418982E-12
2018-07-27 11:01:12.777199077	8.041114E-13	2.600357E-12	3.531903E-12	3.418982E-12
2018-07-27 11:01:12.777213508	8.041114E-13	2.619505E-12	3.531903E-12	3.418982E-12
2018-07-27 11:01:12.871129071	8.041114E-13	2.619505E-12	3.531903E-12	2.134934E-12
2018-07-27 11:01:12.871226200	8.041114E-13	3.124177E-12	3.531903E-12	2.134934E-12
2018-07-27 11:01:12.871375412	2.309531E-13	3.124177E-12	3.531903E-12	2.134934E-12
2018-07-27 11:01:12.871467942	2.309531E-13	3.124177E-12	4.094109E-12	2.134934E-12
2018-07-27 11:01:12.978477573	2.309531E-13	3.124177E-12	4.094109E-12	1.693577E-12
2018-07-27 11:01:12.978565087	2.309531E-13	2.921745E-12	4.094109E-12	1.693577E-12
2018-07-27 11:01:12.978728213	6.504208E-13	2.921745E-12	4.094109E-12	1.693577E-12
2018-07-27 11:01:12.978955626	6.504208E-13	2.921745E-12	3.896609E-12	1.693577E-12
2018-07-27 11:01:13.073229230	6.504208E-13	2.921745E-12	3.896609E-12	2.115026E-12
2018-07-27 11:01:13.073384870	2.473891E-13	2.921745E-12	3.896609E-12	2.115026E-12
2018-07-27 11:01:13.073674461	2.473891E-13	2.902076E-12	3.896609E-12	2.115026E-12
2018-07-27 11:01:13.184671009	2.473891E-13	2.902076E-12	3.896609E-12	9.898245E-13
2018-07-27 11:01:13.184837309	5.043298E-13	2.902076E-12	3.896609E-12	9.898245E-13
2018-07-27 11:01:13.185229664	5.043298E-13	3.418773E-12	3.896609E-12	9.898245E-13
2018-07-27 11:01:13.280450400	-1.772791E-13	3.418773E-12	3.896609E-12	9.898245E-13
2018-07-27 11:01:13.280571461	-1.772791E-13	3.418773E-12	3.896609E-12	1.357734E-12
2018-07-27 11:01:13.280804225	-1.772791E-13	3.053620E-12	3.896609E-12	1.357734E-12
2018-07-27 11:01:13.368647352	-1.772791E-13	3.053620E-12	3.896609E-12	1.527965E-12
2018-07-27 11:01:13.368720491	6.939471E-13	3.053620E-12	3.896609E-12	1.527965E-12
2018-07-27 11:01:13.369238003	6.939471E-13	2.327308E-12	3.896609E-12	1.527965E-12
2018-07-27 11:01:13.473497481	6.939471E-13	2.327308E-12	3.896609E-12	1.323327E-12
2018-07-27 11:01:13.473866378	1.203522E-12	2.327308E-12	3.896609E-12	1.323327E-12
2018-07-27 11:01:13.474076642	1.203522E-12	2.539665E-12	3.896609E-12	1.323327E-12
2018-07-27 11:01:13.585315837	1.203522E-12	2.539665E-12	3.896609E-12	1.988128E-12