# Created by CSS Data Browser Version 4.2.0.201602031546
# 
# Start Time : 2019-02-11 13:44:16.540 -0500
# End Time   : 2019-02-11 16:18:16.540 -0500
# Source     : Linear interp.
# Interpolation Interval: 00:00:05
# Format     : Exponential (6 digits)
# 
# Data is in TAB-delimited columns, should import into e.g. Excel

# Channel: SCR_BTS35:BCM1_D1542:AVG_RD
# Name   : TL
# Archives:
# 1) new
#    URL: pbraw://epicsarchiver.frib.msu.edu/retrieval
#    Key: 1
# 
# Channel: SCR_BTS35:BCM2_D1542:AVG_RD
# Name   : TR
# Archives:
# 1) new
#    URL: pbraw://epicsarchiver.frib.msu.edu/retrieval
#    Key: 1
# 
# Channel: SCR_BTS35:BCM3_D1542:AVG_RD
# Name   : BL
# Archives:
# 1) new
#    URL: pbraw://epicsarchiver.frib.msu.edu/retrieval
#    Key: 1
# 
# Channel: SCR_BTS35:BCM4_D1542:AVG_RD
# Name   : BR
# Archives:
# 1) new
#    URL: pbraw://epicsarchiver.frib.msu.edu/retrieval
#    Key: 1
# 
# Channel: SCR_BTS35:PSD_D1489:I_RD
# Name   : B1
# Archives:
# 1) new
#    URL: pbraw://epicsarchiver.frib.msu.edu/retrieval
#    Key: 1
# 

# Time	SCR_BTS35:BCM1_D1542:AVG_RD Value	Negative Error	Positive Error	SCR_BTS35:BCM2_D1542:AVG_RD Value	Negative Error	Positive Error	SCR_BTS35:BCM3_D1542:AVG_RD Value	Negative Error	Positive Error	SCR_BTS35:BCM4_D1542:AVG_RD Value	Negative Error	Positive Error	SCR_BTS35:PSD_D1489:I_RD Value	Negative Error	Positive Error
2019/02/09 19:41:46.975397440	#N/A	#N/A	#N/A	#N/A	#N/A	#N/A	#N/A	#N/A	#N/A	#N/A	#N/A	#N/A	1.099600E2	0	0
2019/02/11 13:44:20.000000000	-1.786512E-13	1.5164883950969942E-13	1.0592282792308353E-13	1.066964E-13	2.5760098438285523E-13	2.1979492266155489E-13	-2.809525E-13	1.1971470563520795E-13	1.6388161630520964E-13	-1.193684E-13	4.254230210247931E-14	3.721412172850634E-14	#N/A	#N/A	#N/A
2019/02/11 13:44:30.000000000	-4.908524E-13	7.413498151302138E-13	1.3403404814005125E-12	4.116978E-13	1.1925243063868405E-12	1.7444377401458007E-13	-5.628983E-15	5.314467454774686E-13	8.097795597478808E-14	-2.189792E-14	7.388168220168665E-13	4.1319726959404364E-13	#N/A	#N/A	#N/A
2019/02/11 13:44:40.000000000	2.442793E-13	1.4764815659459039E-12	1.1657467840973866E-12	-4.212734E-14	6.902698837808567E-13	6.869759149261496E-13	1.249699E-13	5.222901417078713E-13	3.5840140151360463E-13	-2.565292E-13	3.9149460089081754E-13	8.785349737418291E-13	#N/A	#N/A	#N/A
2019/02/11 13:44:50.000000000	4.975187E-13	2.0601967832065213E-12	7.543644497179414E-13	-8.754549E-13	6.689683789107401E-14	1.4293540448537125E-12	-5.674669E-13	5.337389223903216E-14	9.399599242892842E-13	2.777637E-13	9.627959522035154E-13	3.466433492872749E-13	#N/A	#N/A	#N/A
2019/02/11 13:45:00.000000000	-9.717533E-13	3.3631252939684507E-13	1.7894687235833931E-12	1.675734E-15	9.440274712142626E-13	3.56685293048891E-13	4.970572E-14	6.705465479831159E-13	7.30677978058325E-14	-3.026966E-13	6.132776209218667E-13	7.197481474773723E-13	#N/A	#N/A	#N/A
2019/02/11 13:45:10.000000000	6.721402E-13	2.0224506740491964E-12	6.143768097240451E-13	2.133943E-13	6.022981761473212E-13	3.1229476048769514E-13	-2.354481E-13	1.2234814712361384E-13	6.089811598364887E-13	1.656853E-14	5.67400125012966E-13	5.051474746603071E-13	#N/A	#N/A	#N/A
2019/02/11 13:45:20.000000000	-4.210179E-13	1.3141708343216384E-12	1.6561388106158786E-12	-5.490443E-13	3.488703550393734E-13	1.1045921562616666E-12	5.935127E-14	5.193305168699424E-13	1.6484978753813278E-13	-1.420048E-14	5.668476232300341E-13	5.237385622252885E-13	#N/A	#N/A	#N/A
2019/02/11 13:45:30.000000000	1.113292E-12	2.6720894206432428E-12	3.364716540904881E-13	2.517443E-13	1.1416375884797302E-12	3.2782160248496933E-13	-4.809389E-13	2.837469569942147E-13	5.940895088413517E-13	-2.160002E-14	8.361702976325296E-13	5.48578772177387E-13	#N/A	#N/A	#N/A
2019/02/11 13:45:40.000000000	-1.709138E-13	2.9248373219684072E-12	1.796397506265299E-12	-1.754223E-14	1.6011821652691655E-12	8.080236141640834E-13	-1.809285E-13	6.387301278836731E-13	4.583895313017349E-13	5.228210E-13	1.5314992984596916E-12	7.031029293473581E-13	#N/A	#N/A	#N/A
2019/02/11 13:45:50.000000000	9.997476E-13	2.1393881830318947E-12	1.2169863936559304E-12	-6.833188E-13	3.7542916088974134E-14	1.4577501349154334E-12	2.152206E-13	9.328575135212988E-13	3.756955712098016E-13	4.636120E-13	1.5035524767228353E-12	3.689259040764585E-13	#N/A	#N/A	#N/A
2019/02/11 13:46:00.000000000	-8.387593E-13	1.4442009125675555E-12	3.055493256000104E-12	-2.698488E-13	5.256496949051084E-13	1.2798160182382351E-12	-1.396365E-13	1.3431330292568067E-13	4.183907631124499E-13	-1.642462E-13	4.770762422337487E-13	1.149425914023876E-12	#N/A	#N/A	#N/A
2019/02/11 13:46:10.000000000	-6.248041E-13	8.540551608383534E-13	1.4525325650394075E-12	2.912534E-13	1.0867518649715917E-12	3.0180959282440516E-14	-3.598052E-14	2.929092717534002E-13	2.1340780731382959E-13	1.277762E-14	8.08034852556193E-13	4.86714019962347E-13	#N/A	#N/A	#N/A
2019/02/11 13:46:20.000000000	-1.198127E-13	1.3127464399442434E-12	1.6391416295662114E-12	-1.588436E-13	6.047977836651086E-13	8.275434492307427E-13	1.055234E-13	3.982020651925281E-13	9.417082015388411E-14	2.028816E-13	9.759956620873671E-13	4.405512340126786E-13	#N/A	#N/A	#N/A
2019/02/11 13:46:30.000000000	1.454380E-13	2.0189035347201576E-12	8.654712924263779E-13	1.390386E-13	1.1241266043929115E-12	2.976333586426723E-13	-3.709183E-13	1.163406605275353E-13	5.398135250059885E-13	-2.457035E-13	6.443245315542117E-13	5.848268514881262E-13	#N/A	#N/A	#N/A
2019/02/11 13:46:40.000000000	-2.032140E-13	1.048367664073927E-12	1.823368504787463E-12	2.294896E-13	9.934655444213256E-13	4.837549014500268E-13	2.089266E-13	6.447177026406326E-13	2.6824817620362897E-13	-9.451628E-14	7.451533061087276E-13	7.891179937302935E-13	#N/A	#N/A	#N/A
2019/02/11 13:46:50.000000000	-4.782539E-13	9.925331067131363E-13	2.0414934415532755E-12	-3.207250E-14	7.314456684592555E-13	7.517678605314903E-13	-4.148791E-14	1.9676666430753945E-13	3.059517694302167E-13	-3.282461E-13	3.711244608869768E-13	9.983217869291088E-13	#N/A	#N/A	#N/A
2019/02/11 13:47:00.000000000	7.822364E-14	1.1122850433298658E-12	1.7417792871287755E-12	-5.652240E-14	4.851443828181099E-13	9.156778245135465E-13	-9.298551E-14	2.3247636951213234E-13	2.502426048397495E-13	1.083646E-13	6.588335254433182E-13	6.974981657025827E-13	#N/A	#N/A	#N/A
2019/02/11 13:47:10.000000000	-1.837690E-13	1.8082414166629189E-12	1.2538920892775199E-12	2.331938E-13	1.035520759582659E-12	3.13375088214734E-13	-1.710999E-13	2.061053297601974E-13	5.734042295135249E-13	-2.468372E-13	5.6971756979382E-13	9.892908795222019E-13	#N/A	#N/A	#N/A
2019/02/11 13:47:20.000000000	-7.646541E-13	7.365163894049257E-13	1.7776067374595108E-12	-6.170658E-13	1.5873420491824636E-13	1.0586654369532033E-12	-2.980483E-13	2.5354515126069655E-13	3.0200251826921896E-13	4.554933E-13	1.185342028033734E-12	1.2947932589051807E-14	#N/A	#N/A	#N/A
2019/02/11 13:47:30.000000000	6.703208E-13	2.0614726635663097E-12	9.779769387991803E-13	2.158716E-15	7.80443363571227E-13	3.6304517767423543E-13	6.665990E-14	4.442982691397635E-13	1.9223083378172551E-13	-6.441475E-14	7.402451247962468E-13	9.43907418748523E-13	#N/A	#N/A	#N/A
2019/02/11 13:47:40.000000000	3.416494E-13	1.9349848907139847E-12	3.7553149651021766E-13	-4.829428E-13	3.095703206643979E-13	1.262545160235413E-12	-3.622794E-13	1.1147581723605637E-13	5.569895437630486E-13	-1.095628E-13	6.675541102339792E-13	7.734839618752443E-13	#N/A	#N/A	#N/A
2019/02/11 13:47:50.000000000	-6.650781E-13	6.099528306353097E-13	1.6722212052714853E-12	-9.430293E-14	6.616802853921646E-13	6.490488457103976E-13	-4.232798E-14	4.3142719993201166E-13	1.4099993875416501E-13	-1.407996E-13	6.912782330253451E-13	5.896494399568689E-13	#N/A	#N/A	#N/A
2019/02/11 13:48:00.000000000	1.925652E-13	1.4663898198380112E-12	1.4632471056208934E-12	-5.759607E-13	1.0285665237747593E-13	1.3545992807165522E-12	-1.592711E-13	8.200628429832052E-14	5.79423567948924E-13	-1.002391E-14	5.107366205882376E-13	7.83050381975235E-13	#N/A	#N/A	#N/A
2019/02/11 13:48:10.000000000	-2.890840E-13	1.2455870131811413E-12	1.2069511194863921E-12	6.657760E-14	8.991219402975657E-13	6.717623917632498E-13	6.763148E-14	6.772602602225142E-13	3.3332229113761666E-13	-5.888682E-13	3.0302478216678833E-13	1.3316370115420114E-12	#N/A	#N/A	#N/A
2019/02/11 13:48:20.000000000	6.482358E-13	2.732161077161562E-12	1.2721348084013361E-12	8.348816E-14	1.1377950451203697E-12	8.921922006777366E-13	-3.249811E-13	4.0202163277025353E-13	6.46299733539866E-13	5.522998E-13	1.563460363982751E-12	1.9428600466387117E-13	#N/A	#N/A	#N/A
2019/02/11 13:48:30.000000000	2.832983E-13	1.5996373199166043E-12	9.706517554579991E-13	-1.172145E-14	7.418032233916944E-13	5.540705675876921E-13	1.337848E-13	3.894038105282931E-13	1.5406551417969192E-13	-4.728177E-13	1.6145962269263339E-13	1.0685322901491634E-12	#N/A	#N/A	#N/A
2019/02/11 13:48:40.000000000	-8.298611E-13	7.37481080541829E-13	1.8018136242530499E-12	-5.070986E-13	3.127331988330964E-13	9.53222547340758E-13	-7.367365E-14	5.410751361709873E-13	3.6152394522607004E-13	-1.890436E-13	6.04492201679083E-13	7.054628886052629E-13	#N/A	#N/A	#N/A
2019/02/11 13:48:50.000000000	8.083720E-13	1.9867206062573525E-12	2.1491363687332962E-13	-2.350880E-13	6.259635818082883E-13	5.988334733169557E-13	-2.473054E-13	3.791579928525389E-13	3.1492255364575977E-13	-1.918910E-13	5.355214598185368E-13	2.681992677443726E-13	#N/A	#N/A	#N/A
2019/02/11 13:49:00.000000000	-1.163911E-12	1.4773924991268344E-12	2.1365202024799137E-12	-1.952152E-13	6.658363720275241E-13	6.218435088299438E-13	9.681163E-14	4.1102822823852045E-13	2.8907661931187453E-13	3.333952E-13	1.1766827945764473E-12	2.0423473965569204E-13	#N/A	#N/A	#N/A
2019/02/11 13:49:10.000000000	6.447901E-13	3.286093446662465E-12	1.218674179861509E-12	3.490001E-13	1.6890465921543514E-12	2.782460444785689E-13	-1.097521E-13	2.9675619661758847E-13	1.9809989273597297E-13	3.040423E-14	1.3387088982924634E-12	5.131224037543091E-13	#N/A	#N/A	#N/A
2019/02/11 13:49:20.000000000	4.827939E-13	1.6146552339783407E-12	7.160372211941979E-13	-3.641866E-13	2.6073554156990517E-13	8.231961429241144E-13	-2.568795E-13	2.3949425786175784E-14	5.279967075889973E-13	-2.298021E-13	2.895936014902061E-13	8.309585807073652E-13	#N/A	#N/A	#N/A
2019/02/11 13:49:30.000000000	1.632286E-13	1.2689492375223843E-12	6.734516649873039E-13	1.250346E-13	8.990888988361247E-13	3.8322167641068405E-13	6.833582E-14	4.824187018472926E-13	2.860542378823984E-13	5.108119E-14	8.142819276011991E-13	3.38968721970223E-13	#N/A	#N/A	#N/A
2019/02/11 13:49:40.000000000	2.970691E-13	1.3549147118097566E-12	7.995222341054629E-13	8.219568E-15	5.987071312816931E-13	2.8775993810574364E-13	-1.998427E-14	3.635917180370795E-13	3.7437432770018623E-13	-6.377841E-15	5.551911387205811E-13	4.16655590796397E-13	#N/A	#N/A	#N/A
2019/02/11 13:49:50.000000000	-5.216912E-13	8.253543893300341E-13	1.6182825495995179E-12	-2.999905E-13	5.877424657118628E-13	8.227750480401185E-13	-3.729025E-13	1.9726394580841135E-13	5.1629848314285E-13	1.238343E-13	9.00516549852245E-13	3.358906705113754E-13	#N/A	#N/A	#N/A
2019/02/11 13:50:00.000000000	5.636148E-13	2.0772122117345686E-12	1.1785629270012028E-12	-3.743527E-13	4.794263337613931E-13	1.1588770653246044E-12	-1.515483E-13	4.577039987034646E-13	2.414435684495129E-13	1.882802E-13	9.300112226377942E-13	6.258996328938956E-13	#N/A	#N/A	#N/A
2019/02/11 13:50:10.000000000	-6.780170E-13	5.885640845390036E-13	2.320203675260948E-12	-1.374402E-13	5.446249499000224E-13	8.910457388483389E-13	2.523273E-13	7.53832812332418E-13	2.116447734601242E-13	-4.698670E-13	4.3654561094438173E-13	1.1664481306871277E-12	#N/A	#N/A	#N/A
2019/02/11 13:50:20.000000000	-1.125191E-13	1.6307446595848926E-12	1.3330056581078716E-12	-6.794137E-14	7.521723703933523E-13	6.053333087372006E-13	-3.077150E-13	4.4180394479927785E-13	7.716870777875417E-13	1.727346E-13	1.1966242880043898E-12	2.724470555367541E-13	#N/A	#N/A	#N/A
2019/02/11 13:50:30.000000000	-3.323575E-13	6.386088362846477E-13	1.547341904887192E-12	-5.085485E-14	6.673831119826879E-13	5.254973247953794E-13	1.782976E-13	6.185809171278692E-13	9.084880887672898E-14	2.175951E-14	7.009490031345694E-13	3.3192528304020205E-13	#N/A	#N/A	#N/A
2019/02/11 13:50:40.000000000	7.892612E-13	1.5352820546683338E-12	3.5616793321999596E-13	1.727109E-15	6.262286744535775E-13	4.963511981546075E-13	1.540026E-13	3.844597385930768E-13	2.9480942620756864E-13	-2.957324E-13	3.975041791011086E-13	7.522939757298216E-13	#N/A	#N/A	#N/A
2019/02/11 13:50:50.000000000	-2.133604E-13	1.0979183299714075E-12	1.2298407124108325E-12	-4.183477E-13	2.658390187453898E-13	8.582881010341973E-13	-2.530309E-13	3.4975569490681305E-13	6.20662296373746E-13	-3.636807E-13	3.239063970026639E-14	8.460069293600582E-13	#N/A	#N/A	#N/A
2019/02/11 13:51:00.000000000	-3.169495E-13	1.7361326971399214E-12	1.6062431177747823E-12	-9.951210E-14	9.948256221476474E-13	6.98681989603907E-13	9.219262E-14	7.425963913449813E-13	1.4052255103497352E-13	-1.825337E-13	7.584072489037292E-13	5.14167667578239E-13	#N/A	#N/A	#N/A
2019/02/11 13:51:10.000000000	1.131354E-13	1.542742212425982E-12	7.065304618961443E-13	-2.144116E-13	5.192877692535434E-13	6.079321461364681E-13	-1.130231E-13	4.502190958717166E-13	3.489428300401863E-13	9.453071E-14	8.131681764888205E-13	2.722088759375223E-13	#N/A	#N/A	#N/A
2019/02/11 13:51:20.000000000	8.362452E-13	1.9161437613454874E-12	6.507512914451616E-13	3.697771E-13	9.108398056234465E-13	2.673361950908535E-13	-3.270758E-14	4.369205193210152E-13	1.4492120280976385E-13	-6.146844E-13	2.5570935802734826E-13	7.987075517865316E-13	#N/A	#N/A	#N/A
2019/02/11 13:51:30.000000000	-1.012813E-12	4.555211476938991E-13	2.4998093135697667E-12	-3.502216E-13	4.556169153717143E-13	1.0118988661500804E-12	6.553913E-14	3.173581253709812E-13	2.090856689987157E-13	2.745177E-13	1.1449115181544882E-12	3.052276467701332E-13	#N/A	#N/A	#N/A
2019/02/11 13:51:40.000000000	-1.834885E-13	2.2274210244550944E-12	1.643505355702375E-12	3.311711E-13	1.6029226005611537E-12	3.202380269231668E-13	-2.840552E-13	1.5373276308480111E-13	4.438279257684687E-13	-1.918855E-13	1.0241413743260066E-12	8.577185838458411E-13	#N/A	#N/A	#N/A
2019/02/11 13:51:50.000000000	9.572249E-13	2.354380496046331E-12	4.295242501284846E-13	-3.259591E-13	3.6861201266311284E-13	5.301988508317582E-13	1.272714E-13	6.28466989187639E-13	4.7314052196105676E-14	-2.890610E-13	5.025227852502935E-13	4.425814561208575E-13	#N/A	#N/A	#N/A
2019/02/11 13:52:00.000000000	-2.005319E-13	1.4743895855661877E-12	1.8635039749625565E-12	1.764195E-13	1.109959553190494E-12	4.81531266859748E-13	-5.975771E-14	2.5494108020506383E-13	4.132199990824664E-13	5.453948E-13	1.3744357879970773E-12	1.479208264734085E-13	#N/A	#N/A	#N/A
2019/02/11 13:52:10.000000000	-6.587331E-13	1.043265514968064E-12	2.0960315978544724E-12	-2.638445E-13	6.225812469879755E-13	9.33537613852819E-13	-3.126105E-13	1.0777514719413641E-13	4.894972339923506E-13	-3.294889E-13	5.221568828838235E-13	9.52466514108863E-13	#N/A	#N/A	#N/A
2019/02/11 13:52:20.000000000	-1.853996E-13	9.940572079349418E-13	1.9267940375875556E-12	6.419206E-14	7.900677933590268E-13	7.426054612500787E-13	-7.487534E-14	4.478542955696338E-13	2.394631503045799E-13	-2.018322E-13	3.6600090259882364E-13	1.0351325303855287E-12	#N/A	#N/A	#N/A
2019/02/11 13:52:30.000000000	5.888866E-13	2.2519863606377546E-12	4.254173277930337E-13	-3.766847E-13	2.567508326720755E-13	9.83100105648082E-13	-2.408135E-13	1.881168935222691E-13	3.224603232221537E-13	1.891410E-13	7.983560056726818E-13	4.1354418384624803E-13	#N/A	#N/A	#N/A
2019/02/11 13:52:40.000000000	-2.920800E-13	5.262123851716263E-13	1.4669205935061216E-12	-7.928253E-14	8.100494493388529E-13	5.458335678434973E-13	-1.386637E-14	3.405471569065763E-13	4.289299571748062E-13	3.289989E-13	1.263568370825215E-12	2.6222632896288245E-13	#N/A	#N/A	#N/A
2019/02/11 13:52:50.000000000	9.865567E-13	2.6769791790790365E-12	3.8681310922434703E-13	7.013765E-14	9.136662377534775E-13	3.3226130469456394E-13	6.347001E-14	5.822442666632238E-13	2.3600884815630253E-13	-2.321610E-13	6.025336217380604E-13	6.777044851087479E-13	#N/A	#N/A	#N/A
2019/02/11 13:53:00.000000000	-1.664906E-13	1.451385942346372E-12	1.0454115596944907E-12	-1.896693E-13	7.714499186134963E-13	7.387344439172138E-13	-2.551163E-13	2.5063841292159324E-14	9.131458116085362E-13	-1.019199E-13	7.433690251216391E-13	5.361063657894626E-13	#N/A	#N/A	#N/A
2019/02/11 13:53:10.000000000	-6.138241E-13	1.7759933392316573E-12	2.369100369998761E-12	4.946389E-13	1.7349634004622537E-12	4.98691009184735E-13	-1.106676E-13	6.710175437388888E-13	3.974297332109944E-13	5.572831E-13	1.4750322691233682E-12	3.92635197278681E-13	#N/A	#N/A	#N/A
2019/02/11 13:53:20.000000000	3.423988E-13	1.4197490899122014E-12	4.818526716673091E-13	-2.758256E-13	4.751123200906722E-13	1.2691555012212795E-12	1.571831E-13	7.12447721839489E-13	7.436450910514447E-14	8.750119E-14	6.611291588930423E-13	8.624171046825083E-13	#N/A	#N/A	#N/A
2019/02/11 13:53:30.000000000	1.060618E-13	1.06128342199845E-12	8.059642488904506E-13	2.547763E-13	7.058817714036097E-13	1.5881918672913442E-13	-1.770108E-13	1.528759615322662E-13	4.2673469913992333E-13	-2.538229E-13	1.577307174662952E-13	7.081839104433665E-13	#N/A	#N/A	#N/A
2019/02/11 13:53:40.000000000	7.229565E-13	2.712352585964012E-12	5.587291596605345E-13	-2.796196E-13	7.431975588120022E-13	7.995977416716985E-13	-2.950289E-13	1.594413337752893E-13	3.196510853722023E-13	-9.230069E-14	9.253905889306916E-13	5.040346208299734E-13	#N/A	#N/A	#N/A
2019/02/11 13:53:50.000000000	-6.284250E-13	1.3012948382487915E-12	2.234070966781077E-12	-1.130999E-13	9.518804311623813E-13	8.289318174252254E-13	3.644819E-14	4.152376130942537E-13	1.7196003340442722E-13	-1.240599E-13	8.029017394054448E-13	8.037835413944207E-13	#N/A	#N/A	#N/A
2019/02/11 13:54:00.000000000	1.922560E-13	1.5490006101668619E-12	9.54461391514465E-13	2.073993E-13	9.519817126804875E-13	2.9883633126673437E-13	-2.129754E-13	1.1145563257248902E-13	3.6752709912745107E-13	-7.499275E-14	5.621790261396311E-13	5.388536034694755E-13	#N/A	#N/A	#N/A
2019/02/11 13:54:10.000000000	-9.322066E-13	8.556683046933642E-13	2.4072335975054294E-12	-3.960781E-13	5.110917222328339E-13	1.0502834189109668E-12	5.540330E-14	6.934181876957732E-13	2.232808790623847E-13	-4.189161E-13	5.356643450230469E-13	8.827769356995656E-13	#N/A	#N/A	#N/A
2019/02/11 13:54:20.000000000	-2.908970E-13	7.075556984206646E-13	1.1235816011169895E-12	1.739877E-14	8.23264663857448E-13	6.973492747125743E-13	-3.996054E-13	2.3258131457334073E-13	6.782895355128709E-13	-1.584626E-13	5.09074768982288E-13	9.164289170881571E-13	#N/A	#N/A	#N/A
2019/02/11 13:54:30.000000000	5.368987E-14	1.4923612347000488E-12	1.168365625465557E-12	-6.303291E-13	1.2921303987949888E-13	1.114823873038594E-12	1.212572E-13	7.534438836709879E-13	1.7035688279706262E-13	1.606604E-13	9.389215329041854E-13	3.6632309171052907E-13	#N/A	#N/A	#N/A
2019/02/11 13:54:40.000000000	-5.537832E-13	9.397212377425663E-13	1.9434102216127893E-12	5.464746E-14	6.899671910685485E-13	6.162896843272267E-13	-2.260719E-13	1.7281910213940057E-13	3.5434701111800676E-13	-1.803223E-13	3.350739211819908E-13	3.908998637415618E-13	#N/A	#N/A	#N/A
2019/02/11 13:54:50.000000000	1.173227E-13	1.3019306527264223E-12	1.3317886574380312E-12	1.569504E-13	7.922701537854704E-13	5.369106679909226E-13	-7.322219E-16	4.3802422906951824E-13	2.497938660184893E-13	3.116109E-15	6.611695111954067E-13	7.619995503461501E-13	#N/A	#N/A	#N/A
2019/02/11 13:55:00.000000000	-2.930437E-13	1.655138103122953E-12	1.6909724941298959E-12	2.326719E-15	9.313641647097108E-13	6.41516773939467E-13	-2.402763E-13	3.3603233095883244E-13	4.893379062724207E-13	-6.129243E-13	3.5277064266924056E-13	1.1956267046618103E-12	#N/A	#N/A	#N/A
2019/02/11 13:55:10.000000000	4.893786E-13	2.277283368076326E-12	1.0157467747077913E-12	-3.362682E-13	4.833513176981994E-13	1.1105380677636087E-12	3.703642E-14	3.370018570929216E-13	2.4231526560490696E-13	-5.566473E-14	7.69044154851893E-13	7.711703241176803E-13	#N/A	#N/A	#N/A
2019/02/11 13:55:20.000000000	-7.359911E-13	5.142661451982023E-13	2.247381868989617E-12	6.209247E-13	1.2778373985795417E-12	1.1194048530774934E-13	-2.931330E-13	2.537562702925025E-13	4.905299986570035E-13	-3.486474E-14	7.001693116882882E-13	3.413052392741582E-13	#N/A	#N/A	#N/A
2019/02/11 13:55:30.000000000	-2.509190E-13	1.4370795047231636E-12	1.496715768580827E-12	3.099942E-14	4.702515362814735E-13	4.644434840365571E-13	-1.930644E-15	3.7105614929880644E-13	2.325739613226456E-13	-3.596706E-14	3.150033606362827E-13	5.521489875244598E-13	#N/A	#N/A	#N/A
2019/02/11 13:55:40.000000000	-1.749112E-13	2.0932028039088892E-12	1.7495200590500197E-12	-9.694236E-13	2.1413330198045285E-14	1.628248374699837E-12	-3.839856E-13	1.625946230533858E-13	6.692323767301286E-13	2.192688E-14	8.551548662687337E-13	4.362908658479667E-13	#N/A	#N/A	#N/A
2019/02/11 13:55:50.000000000	1.151588E-12	3.5014728664625102E-12	1.5120492518675E-12	4.397679E-13	1.6860413462104824E-12	7.134883045968996E-13	6.234907E-14	8.376190958051299E-13	8.300834002466603E-13	-6.791156E-14	1.046674692582489E-12	1.0342121333366595E-12	#N/A	#N/A	#N/A
2019/02/11 13:56:00.000000000	4.623278E-14	1.0738867315963503E-12	7.29452272920255E-13	-3.627430E-13	2.000093335674585E-13	9.530142074062032E-13	-6.941488E-14	4.1536766533586594E-13	5.689256017949827E-13	-3.083161E-13	2.829094692882259E-13	1.049740372616417E-12	#N/A	#N/A	#N/A
2019/02/11 13:56:10.000000000	-2.802061E-13	8.834568962099574E-13	1.2089251175878048E-12	-2.397844E-13	4.0071787409965754E-13	6.517325741749568E-13	2.822256E-15	4.671369101628752E-13	7.717190126328762E-14	-6.757560E-14	5.381078352851641E-13	4.600028017835837E-13	#N/A	#N/A	#N/A
2019/02/11 13:56:20.000000000	1.602536E-13	1.8072333670441277E-12	1.445198427956905E-12	-8.776491E-14	7.733925869931973E-13	6.765027800331299E-13	-5.384704E-14	5.221815301780147E-13	2.129951820965381E-13	5.097882E-15	5.302373079261019E-13	5.039913596907419E-13	#N/A	#N/A	#N/A
2019/02/11 13:56:30.000000000	5.114656E-13	2.0310992180021535E-12	6.964514077989291E-13	-1.665036E-13	6.591007237004715E-13	9.378193344307463E-13	-1.421827E-14	4.616650784256496E-13	5.522802030799352E-13	4.220478E-14	8.103503289377073E-13	7.095516619527969E-13	#N/A	#N/A	#N/A
2019/02/11 13:56:40.000000000	-1.105304E-12	9.772647425352923E-13	2.2770098790705777E-12	-2.080713E-14	1.0027844843805695E-12	5.857328834592478E-13	-3.456707E-13	2.5806794827393226E-13	7.904766225297099E-13	-5.226370E-13	5.558570131893626E-13	8.298096552257065E-13	#N/A	#N/A	#N/A
2019/02/11 13:56:50.000000000	7.986531E-13	1.9168690426953105E-12	5.307032482020532E-13	6.648742E-14	7.436597046815069E-13	4.398148807324245E-13	-2.140270E-13	2.734542153074441E-13	4.05890900711804E-13	3.239813E-13	9.169111987507911E-13	2.5120224152439984E-13	#N/A	#N/A	#N/A
2019/02/11 13:57:00.000000000	-4.501233E-13	1.2182669117874908E-12	1.516798473911779E-12	-6.570446E-13	2.2488403657982544E-13	1.1250041987507569E-12	-2.796730E-13	2.352456892755115E-13	3.70250583169215E-13	-3.839084E-13	5.177453238459317E-13	7.498339038399964E-13	#N/A	#N/A	#N/A
2019/02/11 13:57:10.000000000	-9.828227E-13	5.937515459821845E-13	1.9953749366237474E-12	-2.797941E-13	5.623629603150316E-13	7.404242094990779E-13	-1.877419E-14	4.961444618602582E-13	2.040773598055063E-13	4.878569E-13	1.3746368018942744E-12	1.368407877129661E-13	#N/A	#N/A	#N/A
2019/02/11 13:57:20.000000000	2.709523E-13	1.906299309288303E-12	8.329158113848784E-13	4.060728E-13	1.1441409328207634E-12	1.3385441515592367E-13	-3.669264E-13	1.962315752775534E-13	3.3567929122139564E-13	-4.570806E-13	3.349764197372323E-13	1.0817783028579863E-12	#N/A	#N/A	#N/A
2019/02/11 13:57:30.000000000	2.274191E-13	1.3327154739238457E-12	1.2226991282366036E-12	-7.157293E-13	8.762650890483355E-14	1.3232188005910922E-12	-3.040636E-14	5.327515662537578E-13	9.609913221730877E-14	6.316814E-14	5.841659532954683E-13	5.395653022358407E-13	#N/A	#N/A	#N/A
2019/02/11 13:57:40.000000000	-6.118477E-13	9.1752021448177E-13	2.0174883262677766E-12	3.407832E-13	1.1560488864394778E-12	2.4494696412357176E-13	-3.072418E-14	3.5157962305379123E-13	2.511320842997987E-13	-2.921862E-13	4.5437545079770375E-13	8.949195991080701E-13	#N/A	#N/A	#N/A
2019/02/11 13:57:50.000000000	-1.604632E-13	9.262369098707801E-13	1.0851011452630383E-12	-5.415784E-13	1.4059953663836796E-14	8.486980569620031E-13	-2.183357E-13	2.8719003331814053E-13	4.18543906687161E-13	-1.177272E-13	4.0822353767694806E-13	5.320062358444789E-13	#N/A	#N/A	#N/A
2019/02/11 13:58:00.000000000	4.537367E-13	1.4203950287569003E-12	4.794104574453372E-13	-1.999763E-13	5.842756332668478E-13	5.747880188909348E-13	-3.101355E-13	1.8392682388174879E-13	5.454435466254904E-13	-2.760191E-14	4.910542861770087E-13	4.110932751347134E-13	#N/A	#N/A	#N/A
2019/02/11 13:58:10.000000000	4.487212E-13	2.1964056600096E-12	1.1520361345050666E-12	2.695118E-13	1.1124760229625454E-12	3.782882969341474E-13	2.363371E-13	1.0186537644568424E-12	4.4782945600119187E-13	-2.694601E-13	5.282597584323542E-13	8.062323140306797E-13	#N/A	#N/A	#N/A
2019/02/11 13:58:20.000000000	-1.687179E-13	1.195165299643665E-12	1.173898599277344E-12	-5.912399E-14	6.362346272376416E-13	6.951081891152028E-13	-1.290553E-13	3.3324383052623377E-13	3.2747340348923237E-13	-5.056887E-13	2.0554661804266176E-13	8.55960756005571E-13	#N/A	#N/A	#N/A
2019/02/11 13:58:30.000000000	1.643943E-13	1.8522027994218235E-12	1.3337562267956393E-12	-4.048996E-13	5.060313483500506E-13	1.0408838251805286E-12	-9.347573E-14	2.5703690450974065E-13	2.0133789378814303E-13	4.376938E-15	7.156122416806119E-13	5.391402750659082E-13	#N/A	#N/A	#N/A
2019/02/11 13:58:40.000000000	7.909903E-14	1.4770661256595494E-12	8.66001818390287E-13	-3.305510E-13	4.488998546437718E-13	7.53138060943651E-13	-4.274536E-13	1.5756805008749E-13	5.756477736820781E-13	-4.627837E-13	2.4781174116597766E-13	8.86510902114052E-13	#N/A	#N/A	#N/A
2019/02/11 13:58:50.000000000	2.980301E-13	1.6402327986118312E-12	8.142340807559941E-13	3.669915E-14	8.372893134357288E-13	4.59383284091775E-13	2.671268E-13	9.115131988761053E-13	6.015057418374523E-14	-3.751291E-13	3.239004817259569E-13	8.494151625382675E-13	#N/A	#N/A	#N/A
2019/02/11 13:59:00.000000000	-3.735634E-13	1.8654329070288397E-12	1.5655123850863742E-12	2.603026E-13	1.3410247037557285E-12	2.9051532648528396E-13	-2.630840E-13	2.002703781883736E-13	9.144931350190637E-13	1.424909E-13	7.801770401133271E-13	5.696754026280711E-13	#N/A	#N/A	#N/A
2019/02/11 13:59:10.000000000	-4.323782E-13	1.0663558731596311E-12	1.7562487532575306E-12	-5.711324E-13	2.7835698497859326E-13	1.0714041434470051E-12	-4.695192E-14	3.915285320742744E-13	2.511721251742207E-13	4.196077E-13	1.0777214805608525E-12	1.7377075152342193E-13	#N/A	#N/A	#N/A
2019/02/11 13:59:20.000000000	-1.982491E-13	1.0068715546129797E-12	7.911827828885399E-13	-5.840832E-14	5.747067856390788E-13	2.0043706123039032E-13	-1.959891E-13	2.7405128493674153E-13	3.3934747562043445E-13	5.296738E-14	5.254974671023662E-13	3.2912641686026215E-13	#N/A	#N/A	#N/A
2019/02/11 13:59:30.000000000	1.160606E-12	2.3657267019169797E-12	6.264848932606604E-13	1.321843E-13	8.00364353791199E-13	6.947452490177558E-13	1.014208E-14	4.3528869343167684E-13	2.67485324617563E-13	-4.192082E-13	3.471211110859041E-13	1.2336067790479521E-12	#N/A	#N/A	#N/A
2019/02/11 13:59:40.000000000	-9.167049E-13	1.2233584881606997E-12	2.542730042260558E-12	-4.506325E-13	3.026624293719522E-13	1.1752134738768347E-12	-2.909963E-14	5.453799350078106E-13	2.608389573280796E-13	-4.474148E-14	6.133271118511467E-13	7.590324470887906E-13	#N/A	#N/A	#N/A
2019/02/11 13:59:50.000000000	3.941547E-13	2.2127326036193844E-12	4.611899947425869E-13	1.966896E-13	1.0633323285998894E-12	2.450754847107339E-13	-1.930344E-13	3.869591982101577E-13	4.1091693630464806E-13	-4.335872E-13	4.3692324248860674E-13	7.394163391201661E-13	#N/A	#N/A	#N/A
2019/02/11 14:00:00.000000000	1.643529E-13	1.0145171307374394E-12	1.1089477814386935E-12	-2.323438E-13	2.8434672420854014E-13	7.850702905095165E-13	1.040482E-13	6.199719192944238E-13	1.5460464036839566E-13	2.527046E-13	7.223892091793812E-13	3.3629874596168494E-13	#N/A	#N/A	#N/A
2019/02/11 14:00:10.000000000	-5.142295E-13	6.799120178575214E-13	1.865591166341812E-12	9.718470E-14	6.975189248257983E-13	5.450165321892399E-13	-1.516860E-13	2.0443901604806618E-13	3.8277792745436133E-13	-5.566050E-14	4.4549437078949433E-13	4.533769020128603E-13	#N/A	#N/A	#N/A
2019/02/11 14:00:20.000000000	-8.571072E-13	3.2898385374826644E-13	2.067365159103451E-12	-7.149165E-15	5.917214195261707E-13	5.596380789746563E-13	-3.903625E-13	2.4412713875767956E-13	4.3216911027434036E-13	5.731764E-13	1.112794280922583E-12	8.919478865844856E-14	#N/A	#N/A	#N/A
2019/02/11 14:00:30.000000000	2.187628E-13	2.363783798938E-12	2.2823604272554334E-12	-6.691528E-13	4.560203528651615E-13	1.9444790655127207E-12	8.011107E-14	7.936125854247298E-13	3.5055750513141704E-13	-6.128658E-14	8.097257527440181E-13	1.1008166161448363E-12	#N/A	#N/A	#N/A
2019/02/11 14:00:40.000000000	-8.386681E-13	1.4945465367349536E-12	3.0644689757314853E-12	-3.329503E-14	1.2355660684738878E-12	1.140297483619617E-12	1.700900E-14	7.717661049674892E-13	4.085072192836864E-13	-5.209499E-13	5.552384467026203E-13	1.3594535528520184E-12	#N/A	#N/A	#N/A
2019/02/11 14:00:50.000000000	3.006613E-13	1.6507439259174616E-12	9.528037365791035E-13	-6.163879E-13	9.495183214234003E-14	1.1901623220772857E-12	4.681362E-14	4.630167629637685E-13	1.8637265301561474E-13	-4.120661E-13	3.531624895068833E-13	9.754908758667288E-13	#N/A	#N/A	#N/A
2019/02/11 14:01:00.000000000	-2.071500E-13	6.120837837227427E-13	1.329171741031792E-12	-5.093807E-13	5.2152924037818005E-14	9.709812330237588E-13	-4.482284E-14	2.258058049329425E-13	3.272244028202416E-13	-7.038795E-14	2.9128386143770143E-13	6.22202008327582E-13	#N/A	#N/A	#N/A
2019/02/11 14:01:10.000000000	-7.061627E-13	1.0869478339968625E-12	1.838878566521553E-12	2.854585E-13	8.469921738212481E-13	3.956323772365699E-13	-8.529321E-14	4.773607514021643E-13	2.8526810191891187E-13	-8.107776E-14	4.2935733463303903E-13	8.056599203155779E-13	#N/A	#N/A	#N/A