# Created by CSS Data Browser Version 4.2.3.201802142040
# 
# Start Time : 2018-07-27 11:14:06.515 -0400
# End Time   : 2018-07-27 12:20:07.457 -0400
# Source     : Linear interp.
# Interpolation Interval: 00:00:05
# Format     : Exponential (3 digits)
# 
# Data is in TAB-delimited columns, should import into e.g. Excel

# Channel: SCR_BTS35:BCM1_D1542:AVG_RD
# Name   : TL
# Archives:
# 1) new
#    URL: pbraw://epicsarchiver.frib.msu.edu/retrieval
#    Key: 1
# 
# Channel: SCR_BTS35:BCM2_D1542:AVG_RD
# Name   : TR
# Archives:
# 1) new
#    URL: pbraw://epicsarchiver.frib.msu.edu/retrieval
#    Key: 1
# 
# Channel: SCR_BTS35:BCM3_D1542:AVG_RD
# Name   : BL
# Archives:
# 1) new
#    URL: pbraw://epicsarchiver.frib.msu.edu/retrieval
#    Key: 1
# 
# Channel: SCR_BTS35:BCM4_D1542:AVG_RD
# Name   : BR
# Archives:
# 1) new
#    URL: pbraw://epicsarchiver.frib.msu.edu/retrieval
#    Key: 1
# 
# Channel: SCR_BTS35:PSD_D1489:I_RD
# Name   : B1
# Archives:
# 1) new
#    URL: pbraw://epicsarchiver.frib.msu.edu/retrieval
#    Key: 1
# 

# Time	SCR_BTS35:BCM1_D1542:AVG_RD Value	Negative Error	Positive Error	SCR_BTS35:BCM2_D1542:AVG_RD Value	Negative Error	Positive Error	SCR_BTS35:BCM3_D1542:AVG_RD Value	Negative Error	Positive Error	SCR_BTS35:BCM4_D1542:AVG_RD Value	Negative Error	Positive Error	SCR_BTS35:PSD_D1489:I_RD Value	Negative Error	Positive Error
2018-07-27 11:05:05.000000000	#N/A	#N/A	#N/A	#N/A	#N/A	#N/A	#N/A	#N/A	#N/A	#N/A	#N/A	#N/A	1.106E2	0.10985888578323966	1.4111421675977454E-4
2018-07-27 11:14:05.000000000	-1.091E-12	1.4512083023351935E-12	2.696522981363041E-13	1.603E-14	1.4976355260790625E-12	3.965553813992705E-13	1.720E-12	1.8259284946697576E-14	3.824235942586423E-15	-1.873E-12	1.3225651689421978E-13	4.683794885073913E-13	1.106E2	0.10985888578323966	1.4111421675977454E-4
2018-07-27 11:14:15.000000000	-3.475E-13	2.1946619542976655E-12	6.74392720804577E-13	-7.969E-13	6.846658923507748E-13	1.1675633452056852E-12	1.267E-12	1.2844662882660068E-12	4.659433148528943E-13	3.028E-14	2.1803682968452008E-12	3.7121713902210943E-13	1.106E2	0.10985888578323966	1.4111421675977454E-4
2018-07-27 11:14:25.000000000	-1.269E-12	1.991704411277136E-12	3.007349302679679E-13	-2.067E-12	3.7750186085649413E-13	1.4261793935304095E-12	6.902E-13	2.8930901781563093E-13	2.0174503396367705E-12	-6.960E-13	1.551803242765054E-12	1.806143629946124E-12	1.106E2	0.10985888578323966	1.4111421675977454E-4
2018-07-27 11:14:35.000000000	-2.334E-12	7.082487762021402E-13	1.2652312099886566E-12	-1.016E-12	5.81219465350954E-13	1.1764768055917404E-12	-2.073E-13	4.583722340296141E-13	6.081634772588358E-13	-6.188E-13	1.6290182194718106E-12	7.700687327376582E-13	1.106E2	0.10985888578323966	1.4111421675977454E-4
2018-07-27 11:14:45.000000000	-1.956E-12	7.826997635307068E-13	9.186105134544698E-13	-3.641E-13	7.045066010342489E-13	1.7734819996966414E-12	-1.215E-12	4.3214131060270734E-13	1.501090639203504E-12	-1.412E-12	4.89951968040206E-13	6.415826083758125E-13	1.106E2	0.10985888578323966	1.4111421675977454E-4
2018-07-27 11:14:55.000000000	-2.719E-12	3.763843447021143E-13	1.7046373218246763E-12	1.013E-13	1.272875137638059E-12	4.828690811882379E-13	3.690E-13	1.1445800750509172E-12	1.2448509247049437E-12	-3.378E-13	1.0712856987730225E-12	5.93993570445422E-13	1.106E2	0.10985888578323966	1.4111421675977454E-4
2018-07-27 11:15:05.000000000	-1.753E-12	3.1596601709289676E-13	1.0195356537445148E-12	-5.138E-13	4.0763289131688357E-13	1.4819535573525473E-12	1.284E-13	1.40528594205718E-12	6.219276313986286E-13	-9.472E-13	1.13054713738699E-12	2.5533179329560238E-12	1.106E2	0.10985888578323966	1.4111421675977454E-4
2018-07-27 11:15:15.000000000	4.248E-16	1.618750471334919E-12	1.7721875722594397E-12	6.680E-14	4.0246117222051866E-13	1.3307077873970928E-12	-2.549E-13	1.6390537005423585E-12	4.306281823159116E-13	-1.463E-12	6.152354674595499E-13	1.5126205486995046E-12	1.106E2	0.10985888578323966	1.4111421675977454E-4
2018-07-27 11:15:25.000000000	-3.767E-13	8.087770742037038E-13	2.149267335548191E-12	-1.484E-13	6.3737347243729E-13	1.5458850610404933E-12	9.155E-13	2.2576868788550733E-12	6.773799403359068E-13	-1.108E-12	8.883793798429092E-13	1.3301651033419066E-12	1.106E2	0.10985888578323966	1.4111421675977454E-4
2018-07-27 11:15:35.000000000	-1.166E-12	3.0844332920323725E-13	1.6310620094655918E-12	-5.768E-13	9.588328772141358E-13	7.661553449080663E-13	-2.458E-13	1.0964169828412923E-12	7.674649627687519E-13	-1.587E-12	1.821552245307184E-12	2.2459879234550195E-12	1.106E2	0.10985888578323966	1.4111421675977454E-4
2018-07-27 11:15:45.000000000	1.411E-12	1.6702821464600497E-12	2.3584459113455E-13	-2.236E-13	1.164807445371052E-12	1.3660653764368123E-12	4.528E-13	1.4630492705301687E-12	6.350342255635858E-13	-8.918E-14	7.819240378261199E-13	1.1068428469776488E-12	1.106E2	0.10985888578323966	1.4111421675977454E-4
2018-07-27 11:15:55.000000000	-1.294E-13	1.0414070294816734E-12	1.9920521570722838E-12	-1.799E-13	1.420795125753023E-12	2.0724614164199796E-13	2.408E-13	2.0277019780121127E-13	1.2647259588913035E-12	8.627E-13	1.6782607937146308E-12	7.091201302517416E-14	1.106E2	0.10985888578323966	1.4111421675977454E-4
2018-07-27 11:16:05.000000000	-1.459E-12	5.99774100333202E-13	1.7910725097360751E-12	3.097E-14	1.8571039308122844E-12	2.8663672317941506E-13	1.381E-12	1.9595717219818394E-12	5.352551908981047E-13	-4.248E-13	1.0768611151628674E-12	1.3583909552640736E-12	1.106E2	0.10985888578323966	1.4111421675977454E-4
2018-07-27 11:16:15.000000000	-1.087E-12	1.7467210011706932E-12	2.587643096584513E-14	1.076E-15	2.085778570970203E-12	7.034494797358789E-14	-1.093E-12	1.7314254510620933E-13	1.0220199896075327E-12	-6.715E-13	6.590296907065314E-13	1.3494233208062252E-12	1.106E2	0.10985888578323966	1.4111421675977454E-4
2018-07-27 11:16:25.000000000	-1.122E-12	1.952865400676718E-12	5.233201595497331E-13	9.682E-13	1.4184539300377358E-12	1.2985122380900188E-13	-1.075E-12	5.127148412874537E-13	1.2542797542401953E-12	-1.969E-13	9.763416022333658E-13	8.560094862904968E-13	1.106E2	0.10985888578323966	1.4111421675977454E-4
2018-07-27 11:16:35.000000000	2.165E-13	2.205243618516985E-12	4.482955622386369E-13	-4.319E-14	1.8031149601133455E-13	1.1819228580078292E-12	3.068E-13	1.894711851847396E-12	5.57065606343526E-13	-7.244E-13	9.664494865174196E-13	1.2912858793783913E-13	1.106E2	0.10985888578323966	1.4111421675977454E-4
2018-07-27 11:16:45.000000000	-1.662E-12	9.694789665338374E-13	1.4805699569586062E-12	1.181E-12	7.489020712464264E-13	7.327501885802296E-13	-3.350E-13	3.975638660018569E-13	1.3914993492538804E-12	-1.251E-12	6.528504421062011E-13	1.0049037407093515E-12	1.106E2	0.10985888578323966	1.4111421675977454E-4
2018-07-27 11:16:55.000000000	-1.968E-12	1.017647542477269E-12	6.628756146424842E-13	-1.313E-12	5.222648281808843E-13	2.3955017428640407E-12	-8.951E-13	9.74035290326259E-13	1.95158419266782E-12	-4.963E-15	9.2348396601685E-13	7.023221271990914E-13	1.106E2	0.10985888578323966	1.4111421675977454E-4
2018-07-27 11:17:05.000000000	-2.259E-12	1.1895168371185063E-13	2.3676646893502963E-12	2.393E-13	1.273693897054495E-12	7.987297994634496E-13	2.703E-13	1.3889892272611003E-12	7.3654220775172E-13	-1.412E-12	2.4491774362058525E-13	1.2911833592083942E-12	1.106E2	0.10985888578323966	1.4111421675977454E-4
2018-07-27 11:17:15.000000000	-1.815E-12	1.773419053164684E-12	3.553310326660002E-13	-2.736E-15	9.664061192724479E-13	6.208357687738151E-13	2.910E-13	1.5686416425598961E-12	7.159298858748606E-13	-1.187E-12	1.3139052457606688E-12	1.7861621313297861E-12	1.106E2	0.10985888578323966	1.4111421675977454E-4
2018-07-27 11:17:25.000000000	-1.970E-12	5.815089778447551E-13	5.482821627115833E-13	1.293E-12	1.2421461157312988E-12	7.06121105719498E-13	-8.748E-13	1.1484096494549834E-12	1.1823405775195012E-12	-9.162E-13	1.6150392286206737E-12	2.7493465023979865E-13	1.106E2	0.10985888578323966	1.4111421675977454E-4
2018-07-27 11:17:35.000000000	-1.346E-12	9.896654855192475E-13	4.048596848069915E-13	7.492E-13	6.317554965957405E-13	8.481980308548205E-13	-1.529E-12	1.1701927314021272E-12	1.4495357146046412E-12	-5.700E-13	2.429225540138489E-12	3.845905304181542E-13	1.106E2	0.10985888578323966	1.4111421675977454E-4
2018-07-27 11:17:45.000000000	-1.032E-12	8.754698385630446E-13	9.92733443793224E-13	4.260E-13	8.922092400216745E-13	5.760021724081358E-13	-1.423E-13	1.4733889540281255E-12	1.8785210050677833E-13	-1.233E-12	3.646572005697907E-13	1.5084038603356683E-12	1.106E2	0.10985888578323966	1.4111421675977454E-4
2018-07-27 11:17:55.000000000	-9.790E-13	2.5513489143080967E-13	1.373114992220931E-12	8.849E-13	4.933964028949706E-13	8.78404496610643E-13	6.219E-13	1.9398598956616147E-12	2.7492949490234674E-13	-6.356E-13	1.6915916281885783E-12	6.263137978368114E-13	1.106E2	0.10985888578323966	1.4111421675977454E-4
2018-07-27 11:18:05.000000000	4.457E-13	1.1218318798025779E-12	2.3107434730923406E-13	7.799E-13	1.9317867276228757E-12	1.2703238013230469E-12	-3.712E-13	4.888732968790317E-13	1.6820470751302466E-12	4.500E-13	9.419422105145224E-13	2.913672968554737E-13	1.106E2	0.10985888578323966	1.4111421675977454E-4
2018-07-27 11:18:15.000000000	2.413E-14	1.6600948008781526E-12	9.94457658838646E-13	4.658E-14	1.2840632725013894E-12	1.2338008355842391E-12	-3.524E-13	4.5172334985573527E-13	9.592974059120891E-13	1.704E-13	8.743186128010025E-13	2.945474849952294E-12	1.106E2	0.10985888578323966	1.4111421675977454E-4
2018-07-27 11:18:25.000000000	-9.067E-13	1.2910812824333397E-12	8.622855216895901E-13	1.575E-12	6.525056626651772E-13	1.1341882679607352E-12	2.885E-13	1.818537894119477E-12	1.2599078980787113E-12	2.067E-13	1.969010686085877E-12	3.2468581988158986E-14	1.106E2	0.10985888578323966	1.4111421675977454E-4
2018-07-27 11:18:35.000000000	-2.490E-12	3.110636829573949E-13	2.144275152758857E-12	1.627E-12	1.7412511598481183E-12	4.3409485703572727E-13	1.294E-12	5.4361483448576E-13	4.649404585974302E-13	-9.973E-13	1.582746058613547E-12	1.2595759333069254E-12	1.106E2	0.10985888578323966	1.4111421675977454E-4
2018-07-27 11:18:45.000000000	-1.086E-12	1.6998300181217097E-12	1.5235146655254455E-12	4.812E-13	6.608480095831927E-13	9.083485722573182E-13	1.302E-12	8.830924903508308E-13	6.603846872691041E-13	-4.434E-13	1.2573459496813834E-12	5.640676865261916E-13	1.106E2	0.10985888578323966	1.4111421675977454E-4
2018-07-27 11:18:55.000000000	-7.172E-13	5.064496461568707E-13	2.1933874424280254E-12	1.143E-12	1.188109668678488E-12	4.543825727060381E-14	1.220E-12	1.1395486882291724E-12	1.0921237179674194E-12	-1.824E-12	1.5734004869605922E-12	1.437811265930952E-12	1.106E2	0.10985888578323966	1.4111421675977454E-4
2018-07-27 11:19:05.000000000	-7.372E-13	1.0968030892948988E-12	1.0933844841380317E-12	6.553E-13	2.46219678233698E-13	1.1395734116329367E-12	1.356E-12	1.3461762671429322E-12	1.1832213397067398E-12	-1.525E-12	8.169227933894522E-13	8.648818635929701E-13	1.106E2	0.10985888578323966	1.4111421675977454E-4
2018-07-27 11:19:15.000000000	-4.577E-13	4.830200686080754E-13	1.3766895518676955E-12	1.067E-12	1.0853565278772922E-12	5.6772774147544694E-14	1.634E-12	4.652901056436328E-14	1.7525626861748333E-12	-1.538E-12	1.2046127973074967E-12	1.6552180590157436E-12	1.106E2	0.10985888578323966	1.4111421675977454E-4
2018-07-27 11:19:25.000000000	-5.832E-13	1.0214278947804164E-12	1.4887025106456107E-12	9.434E-13	3.833609280732273E-13	4.454863610121538E-13	7.286E-13	2.0303090500157717E-14	1.5752983489758553E-12	-8.114E-13	1.6936527882044923E-12	1.1747462358052118E-12	1.106E2	0.10985888578323966	1.4111421675977454E-4
2018-07-27 11:19:35.000000000	-1.148E-12	1.0923848546827874E-12	1.6302063070451236E-12	2.080E-12	1.6279906100895672E-12	8.196890287730397E-13	6.013E-13	7.188526704160913E-13	1.0174008295686548E-12	-2.069E-12	1.8686702429265868E-13	1.2021000129082705E-12	1.106E2	0.10985888578323966	1.4111421675977454E-4
2018-07-27 11:19:45.000000000	-1.281E-13	5.409880344280808E-13	1.7451481159320219E-12	1.537E-12	1.3469312203373678E-12	5.775537478480547E-13	2.469E-13	7.899678542499812E-13	1.571136038076378E-12	-7.889E-14	1.4680321022710724E-12	1.6826440842533979E-13	1.106E2	0.10985888578323966	1.4111421675977454E-4
2018-07-27 11:19:55.000000000	-1.228E-12	1.357700829508669E-13	2.121442913531982E-12	1.333E-12	1.1681828799147108E-12	7.371540961366149E-13	4.760E-13	5.961976365170413E-13	1.3420560046115042E-12	-1.469E-12	3.146247592388916E-13	1.612408307510683E-12	1.106E2	0.10985888578323966	1.4111421675977454E-4
2018-07-27 11:20:05.000000000	1.601E-13	1.1893142173077534E-12	1.5516798784945546E-12	6.907E-13	5.255503746582224E-13	8.580224421905312E-13	1.557E-13	4.577326007020499E-13	1.3232094817030485E-12	-1.253E-12	5.747517502005488E-13	1.5592435443703743E-12	1.106E2	0.10985888578323966	1.4111421675977454E-4
2018-07-27 11:20:15.000000000	-2.081E-12	1.4486561659963582E-13	1.2257580911716685E-12	1.154E-12	1.4008215750716583E-12	5.834766541458683E-13	1.227E-12	1.0055812840657696E-12	4.1533384273476667E-13	-5.945E-13	1.3978588832650746E-12	9.007793413366686E-13	1.106E2	0.10985888578323966	1.4111421675977454E-4
2018-07-27 11:20:25.000000000	1.102E-13	2.7630688867593087E-12	1.1317668237662003E-12	3.670E-13	4.870378064750513E-13	1.0391242218376299E-12	-3.663E-13	7.580910598951289E-13	1.4750714624208523E-12	5.772E-14	3.5009199610303238E-12	1.1840498217989598E-12	1.106E2	0.10985888578323966	1.4111421675977454E-4
2018-07-27 11:20:35.000000000	1.606E-13	1.0546665673909736E-12	1.084901761466451E-12	-7.977E-14	5.650666372611063E-13	1.4858546836541147E-12	-5.248E-13	1.1529662035030355E-12	3.6359947700081074E-13	-2.220E-12	1.558205372683027E-12	1.0267437630973123E-12	1.106E2	0.10985888578323966	1.4111421675977454E-4
2018-07-27 11:20:45.000000000	-7.276E-13	5.801226863025449E-13	1.9822809925914983E-12	4.269E-13	1.5676404598166437E-12	3.363256094048527E-13	-6.223E-13	9.337035168720382E-13	1.3902219782756605E-12	-1.301E-12	6.451814253817246E-13	6.635726611127137E-13	1.106E2	0.10985888578323966	1.4111421675977454E-4
2018-07-27 11:20:55.000000000	-1.077E-10	4.961653139581278E-10	1.0720991230110411E-10	-1.063E-10	3.9101259496958613E-10	1.0707944544999246E-10	5.323E-13	2.5665647310479115E-12	4.0764921384589254E-12	-6.055E-11	2.0121869879431343E-10	5.96384213619745E-11	1.106E2	0.10985888578323966	1.4111421675977454E-4
2018-07-27 11:21:05.000000000	-8.731E-10	5.254577275542161E-10	8.74657166359052E-10	-5.360E-10	1.8502783664018356E-10	5.90426520626242E-10	-4.962E-10	2.039810254603539E-10	5.230202690333225E-10	-3.137E-10	1.0589502089570075E-10	5.41587717003127E-10	1.106E2	0.10985888578323966	1.4111421675977454E-4
2018-07-27 11:21:15.000000000	9.254E-13	4.5390575234192997E-13	1.4727547853777846E-12	2.104E-11	7.2419753745522864E-12	5.948800735143177E-12	2.372E-11	4.472263514529802E-12	3.2853555087932594E-12	3.519E-12	1.262341999039076E-11	6.879026065021534E-12	1.106E2	0.10985888578323966	1.4111421675977454E-4
2018-07-27 11:21:25.000000000	2.663E-12	2.115593874883435E-12	1.9106117444059656E-13	1.219E-11	3.1981540028280836E-12	3.070183366137022E-12	1.647E-11	5.687984616296725E-12	2.7754726104564963E-12	7.888E-12	2.7906530292118903E-12	2.509466490021811E-12	1.106E2	0.10985888578323966	1.4111421675977454E-4
2018-07-27 11:21:35.000000000	7.616E-13	1.4258948637947837E-12	1.1387290881171375E-12	8.231E-12	2.9140856104557884E-12	1.6467574996287392E-12	1.009E-11	3.2613337453252053E-12	1.8014102760905086E-12	6.139E-12	2.3573988593490842E-12	8.678978764144667E-13	1.106E2	0.10985888578323966	1.4111421675977454E-4
2018-07-27 11:21:45.000000000	-7.051E-13	1.0110152093748579E-12	1.3969528349061567E-12	5.037E-12	2.1982590446847565E-12	1.070891808472283E-12	6.023E-12	5.960874814639067E-13	2.1303183775296133E-12	3.599E-12	2.0632717121075264E-12	1.6690519344378912E-12	1.106E2	0.10985888578323966	1.4111421675977454E-4
2018-07-27 11:21:55.000000000	-7.117E-13	1.241921691855001E-12	1.9319213343061923E-12	3.155E-12	1.0385139397312107E-12	5.620942899059337E-13	3.983E-12	8.735511147979585E-13	1.5456524050232035E-12	2.723E-12	1.7063516495624417E-12	4.662674548229363E-13	1.106E2	0.10985888578323966	1.4111421675977454E-4
2018-07-27 11:22:05.000000000	-3.709E-12	1.232556746095935E-11	3.189238452012145E-12	2.429E-11	2.229128572081084E-11	8.48553946342612E-11	3.672E-12	4.4272347589940804E-12	2.8469458917170065E-12	2.250E-11	2.264010748597564E-11	7.128548779753289E-11	1.106E2	0.10985888578323966	1.4111421675977454E-4
2018-07-27 11:22:15.000000000	-8.820E-12	9.499566111394884E-12	5.2328692342548364E-12	9.924E-11	2.0006277984248427E-11	1.3997486406696932E-11	5.328E-12	1.2029840720421452E-11	2.02907481067118E-11	8.899E-11	7.076734234340867E-12	8.744499157420865E-12	1.106E2	0.10985888578323966	1.4111421675977454E-4
2018-07-27 11:22:25.000000000	-6.186E-12	1.0092038360373462E-11	6.543215665085821E-12	9.014E-11	1.9516159867831913E-11	9.558360004833437E-12	1.364E-11	1.5243999936920618E-11	1.5895493051665863E-11	9.035E-11	1.2624749107376573E-11	4.200837450011632E-12	1.106E2	0.10985888578323966	1.4111421675977454E-4
2018-07-27 11:22:35.000000000	-9.809E-12	9.498432309750798E-12	1.892730562563672E-12	1.040E-10	8.532498719736264E-12	6.303067562535885E-12	3.375E-12	1.3606879231794778E-11	3.825676324502532E-12	9.413E-11	6.885651955286066E-12	7.449801554998259E-12	1.106E2	0.10985888578323966	1.4111421675977454E-4
2018-07-27 11:22:45.000000000	-8.105E-12	8.757917841978034E-12	2.3764086159992535E-12	1.083E-10	1.4447690343228614E-11	3.711267018946385E-12	-5.536E-12	7.314001838556528E-12	1.6124511440404647E-11	8.741E-11	2.3982441477929743E-12	3.2028490252340583E-12	1.106E2	0.10985888578323966	1.4111421675977454E-4
2018-07-27 11:22:55.000000000	-1.439E-11	3.473842836710646E-12	8.65674545636491E-12	1.049E-10	1.1049572806817263E-11	3.78289403392666E-12	-3.894E-12	4.3012741901189006E-12	1.4482995500394717E-11	9.005E-11	9.973261484189907E-12	4.322525134996556E-12	1.106E2	0.10985888578323966	1.4111421675977454E-4
2018-07-27 11:23:05.000000000	-1.653E-11	1.0454040670858427E-11	9.24711236907384E-12	1.088E-10	4.644129187185178E-12	1.197220036355763E-11	-1.089E-11	1.5793286359037653E-11	1.207972308424542E-11	9.283E-11	1.4236819323893283E-11	5.2326951652805504E-12	1.106E2	0.10985888578323966	1.4111421675977454E-4
2018-07-27 11:23:15.000000000	-1.445E-11	3.929947590046528E-12	9.756485844439843E-12	1.032E-10	1.3612813625051334E-11	5.758681025788877E-12	-7.858E-12	2.8243617058396646E-12	1.212023637288806E-11	8.872E-11	1.047929415696572E-11	1.0508663559022508E-11	1.106E2	0.10985888578323966	1.4111421675977454E-4
2018-07-27 11:23:25.000000000	-1.355E-11	6.853927448236205E-12	2.0963954182035646E-12	9.985E-11	1.031249575943116E-11	7.95994884639585E-12	-2.268E-12	7.446095641256813E-12	6.056248847840775E-12	9.694E-11	1.3206058505305868E-11	5.194014546146737E-12	1.106E2	0.10985888578323966	1.4111421675977454E-4
2018-07-27 11:23:35.000000000	-1.518E-11	1.419282747322676E-12	5.2093796004709254E-12	1.052E-10	1.1833992376241916E-11	7.021698579873969E-12	-8.279E-12	3.746158612733658E-12	1.354556606912059E-11	8.574E-11	2.004497586413537E-12	4.9827463043488155E-12	1.106E2	0.10985888578323966	1.4111421675977454E-4
2018-07-27 11:23:45.000000000	-8.705E-12	2.0144277001793287E-11	6.158388470237353E-12	9.796E-11	1.1858223961809686E-11	9.572268439313468E-12	5.051E-12	2.011228730453022E-11	6.277132727970997E-12	1.000E-10	1.3518821589384326E-11	8.890513189401303E-12	1.106E2	0.10985888578323966	1.4111421675977454E-4
2018-07-27 11:23:55.000000000	-2.445E-11	4.403451454527337E-12	1.0651936757676632E-11	1.028E-10	1.3890908861900353E-12	1.3814280757830014E-11	-1.193E-11	2.0371491872626847E-11	1.1836326759693848E-14	1.033E-10	1.222402149203519E-11	1.0893312158553954E-11	1.106E2	0.10985888578323966	1.4111421675977454E-4
2018-07-27 11:24:05.000000000	-1.899E-11	4.788194226055034E-13	5.195527858850513E-12	1.077E-10	7.0440804244738435E-12	4.7917330978653174E-12	-1.334E-11	2.6303802209695064E-12	7.163139752785373E-12	8.988E-11	2.1325882981573596E-12	3.002366750403813E-12	1.106E2	0.10985888578323966	1.4111421675977454E-4
2018-07-27 11:24:15.000000000	-1.745E-11	5.581633216567482E-12	8.733137481979895E-12	1.085E-10	5.6734389631256385E-12	4.049509111215347E-12	-1.469E-11	6.4403587581402015E-12	1.889756083471715E-11	9.168E-11	7.284653555960217E-12	4.677596319108327E-12	1.106E2	0.10985888578323966	1.4111421675977454E-4
2018-07-27 11:24:25.000000000	-1.316E-11	1.8259261351175742E-11	6.077762145452034E-12	1.048E-10	8.365193557805785E-12	2.0368402647905524E-11	-3.920E-12	3.9875624205338956E-11	1.0962250207197623E-11	8.859E-11	6.0536454825030964E-12	9.70512224153387E-12	1.106E2	0.10985888578323966	1.4111421675977454E-4
2018-07-27 11:24:35.000000000	-1.196E-11	1.946067890004961E-11	1.1507853066159769E-11	9.843E-11	1.4037421091473266E-11	2.6735061661326752E-11	9.235E-14	4.388825218356712E-11	1.0814521506656536E-11	9.476E-11	3.68751551509865E-12	8.554131132354804E-12	1.106E2	0.10985888578323966	1.4111421675977454E-4
2018-07-27 11:24:45.000000000	-9.687E-12	7.684014274464503E-12	8.151106999529943E-12	1.036E-10	2.22146856630267E-11	5.484904066282645E-12	1.157E-12	1.2791653958536108E-11	1.6763160141729427E-11	8.694E-11	1.081995062690132E-11	8.501640035101655E-12	1.106E2	0.10985888578323966	1.4111421675977454E-4
2018-07-27 11:24:55.000000000	-4.278E-12	1.2303166441148018E-11	6.568185635382398E-12	8.215E-11	7.043963828446809E-12	2.0083734235403473E-11	1.486E-11	1.8904066864849428E-11	4.813366349338217E-12	8.687E-11	1.1550776758403605E-11	2.5138994195941203E-13	1.106E2	0.10985888578323966	1.4111421675977454E-4
2018-07-27 11:25:05.000000000	-1.121E-11	5.368934890276879E-12	1.738963702672E-12	1.091E-10	7.89852381979071E-12	9.531766760005071E-12	-4.849E-12	1.8804114198713507E-11	9.22951960534917E-13	8.176E-11	6.33141752116582E-13	1.145663226044893E-11	1.106E2	0.10985888578323966	1.4111421675977454E-4
2018-07-27 11:25:15.000000000	8.116E-13	1.5985895328606665E-11	5.163807343587465E-13	8.171E-11	3.850894397328327E-13	2.4333359079973943E-11	1.291E-11	2.4818325218333535E-11	2.3733882340056907E-12	7.736E-11	5.962499393031934E-12	1.282561479706984E-11	1.106E2	0.10985888578323966	1.4111421675977454E-4
2018-07-27 11:25:25.000000000	5.472E-13	9.109624048348732E-12	3.919131735686009E-12	8.493E-11	1.3230498341866502E-11	2.3196865411452123E-11	1.168E-11	1.5721675377831155E-11	8.38248767282039E-12	7.953E-11	8.140027157432846E-12	7.576972611777945E-12	1.106E2	0.10985888578323966	1.4111421675977454E-4
2018-07-27 11:25:35.000000000	6.315E-12	2.333508333642324E-11	3.2032887033716716E-12	9.318E-11	2.8529234677155473E-12	1.8331625267903176E-11	6.723E-12	1.641954858840069E-11	4.453863901490369E-12	9.220E-11	9.609535024217201E-12	1.3096335672822425E-12	1.106E2	0.10985888578323966	1.4111421675977454E-4
2018-07-27 11:25:45.000000000	-8.263E-12	1.2258195254326202E-11	5.141026404380483E-12	1.024E-10	2.0160148796133002E-11	1.4710684362360168E-11	-7.406E-12	1.269775848063379E-11	1.394922812310311E-11	8.898E-11	7.11399478351877E-12	4.400251680257182E-12	1.106E2	0.10985888578323966	1.4111421675977454E-4
2018-07-27 11:25:55.000000000	3.720E-12	1.1710313481740431E-11	1.2605214887337997E-12	7.931E-11	7.958318754972827E-13	1.5176409883803097E-11	1.615E-11	1.5453693905308217E-11	1.5165680261111689E-12	7.908E-11	1.685037725668472E-12	5.797952896852086E-12	1.106E2	0.10985888578323966	1.4111421675977454E-4
2018-07-27 11:26:05.000000000	-1.063E-12	6.733454621714609E-12	1.7796979776201106E-12	8.771E-11	7.541620684595534E-12	1.1957472609548222E-11	6.080E-12	8.304031798196645E-12	4.659889033483634E-12	8.776E-11	1.1999965668618525E-11	3.0659043699515493E-13	1.106E2	0.10985888578323966	1.4111421675977454E-4
2018-07-27 11:26:15.000000000	-7.169E-12	8.403984725704857E-12	4.620703041323986E-12	1.049E-10	1.0397524633855181E-11	3.928228220492299E-12	2.410E-12	1.3952094403693436E-11	2.355512889435546E-12	8.807E-11	4.990481942244124E-12	2.6075754470150403E-12	1.106E2	0.10985888578323966	1.4111421675977454E-4
2018-07-27 11:26:25.000000000	-1.097E-11	1.2844584948485561E-12	1.1677495383554167E-11	9.888E-11	8.99248211456826E-12	2.656277131304476E-12	-8.262E-12	2.0802078155248E-12	1.4795848974827057E-11	8.325E-11	8.384172942574136E-12	5.401874754493097E-12	1.106E2	0.10985888578323966	1.4111421675977454E-4
2018-07-27 11:26:35.000000000	5.387E-13	1.1101786517291642E-11	2.2734808691448055E-12	9.857E-11	1.80797105481282E-11	1.8023127863746424E-12	-1.743E-12	9.047209944452208E-14	1.305302262578284E-11	8.321E-11	4.292025516594873E-12	4.123598982726205E-12	1.106E2	0.10985888578323966	1.4111421675977454E-4
2018-07-27 11:26:45.000000000	-1.688E-12	9.057634601972548E-12	2.9330913921375537E-12	8.864E-11	2.647477962884926E-12	1.2336190960492934E-11	4.483E-12	1.2068281522830881E-11	2.167483219066699E-12	9.005E-11	5.905572654099737E-12	1.8825490461872214E-12	1.106E2	0.10985888578323966	1.4111421675977454E-4
2018-07-27 11:26:55.000000000	-9.073E-12	5.368277150180874E-12	1.3620707215995054E-12	1.016E-10	6.186133847083719E-12	1.0552906766090625E-11	-3.016E-12	7.420999800871258E-12	7.1115513685241895E-12	8.785E-11	5.455898569587145E-12	2.358732296463713E-12	1.106E2	0.10985888578323966	1.4111421675977454E-4
2018-07-27 11:27:05.000000000	-3.874E-12	5.0493842157794844E-12	1.0938742181353403E-11	9.344E-11	6.524514034609872E-12	1.1642832681317177E-11	7.449E-12	1.4443730405569175E-11	5.271697946786787E-12	7.503E-11	1.6223017017804003E-12	1.162709557605168E-11	1.106E2	0.10985888578323966	1.4111421675977454E-4
2018-07-27 11:27:15.000000000	-7.725E-12	5.172609493687456E-12	6.921932890460197E-12	1.021E-10	1.1584801512454222E-11	3.194348973538441E-12	-4.104E-12	8.748459635095128E-12	9.790805163069244E-12	7.846E-11	4.0391860426393915E-12	4.1564526139766535E-12	1.106E2	0.10985888578323966	1.4111421675977454E-4
2018-07-27 11:27:25.000000000	-1.580E-11	1.6272645337590465E-12	1.499666460919291E-11	1.134E-10	2.6283173581603486E-11	2.0599674973455527E-12	-1.539E-11	4.296475873570806E-12	2.107501603545629E-11	8.317E-11	1.142462718861738E-11	6.281007047718379E-12	1.106E2	0.10985888578323966	1.4111421675977454E-4
2018-07-27 11:27:35.000000000	-1.061E-11	5.422736718909994E-12	5.085502550346662E-12	1.064E-10	4.254021075884166E-12	5.084968777974774E-12	-1.112E-11	8.55959531159987E-12	6.691623961013632E-12	8.655E-11	1.7269733637469818E-12	5.687427213797834E-12	1.106E2	0.10985888578323966	1.4111421675977454E-4
2018-07-27 11:27:45.000000000	-9.542E-12	8.648055497938353E-12	4.01758879012468E-12	9.783E-11	3.938714135856127E-12	9.08455802085934E-12	-6.044E-12	8.515098687308803E-12	6.141862276894064E-12	8.542E-11	1.1583803339470327E-11	6.086783365737468E-12	1.106E2	0.10985888578323966	1.4111421675977454E-4
2018-07-27 11:27:55.000000000	2.484E-13	1.1978934123702788E-11	1.9024214003603275E-12	9.016E-11	1.5413720283566229E-12	2.265605739020721E-11	9.833E-13	1.5769631838880198E-11	1.9055742262977243E-12	7.465E-11	2.8560217124530017E-12	8.097598363726553E-12	1.106E2	0.10985888578323966	1.4111421675977454E-4
2018-07-27 11:28:05.000000000	2.163E-12	9.734403468415162E-12	2.314037310629824E-13	6.918E-11	7.090452133770937E-11	2.6676969536580994E-11	-4.821E-13	5.543953095722309E-12	4.497522200298203E-12	5.702E-11	6.241296152177635E-11	2.5734172067014667E-11	1.106E2	0.10985888578323966	1.4111421675977454E-4
2018-07-27 11:28:15.000000000	1.161E-12	1.0063668792460812E-12	1.2338587934757921E-12	-2.899E-12	9.058858280415786E-13	1.561880576110331E-12	-5.128E-12	5.865891469913673E-13	8.921275840800981E-13	-3.697E-12	1.7006192542895858E-12	2.8648039323240004E-13	1.106E2	0.10985888578323966	1.4111421675977454E-4
2018-07-27 11:28:25.000000000	6.060E-13	9.973918949250328E-14	1.506561283720696E-12	-3.606E-12	1.2123497707858246E-12	6.529924886212177E-13	-5.220E-12	8.660083084391814E-13	7.117564410878173E-13	-4.268E-12	2.523877629359644E-12	8.571213397184256E-13	1.106E2	0.10985888578323966	1.4111421675977454E-4
2018-07-27 11:28:35.000000000	2.730E-13	3.638904644918742E-12	2.294171498346031E-12	2.463E-11	2.8271948531595107E-11	8.232287542489445E-11	-2.190E-12	3.5634443917178793E-12	6.696467026243253E-12	1.507E-11	2.141675586648484E-11	5.521771078161701E-11	1.106E2	0.10985888578323966	1.4111421675977454E-4
2018-07-27 11:28:45.000000000	1.031E-12	5.04236057001067E-12	7.150380466404422E-12	1.029E-10	7.417128783119243E-12	5.1865266743772E-12	7.251E-12	3.4751593849569188E-12	6.65734710479683E-12	6.029E-11	1.7516147741260445E-12	1.2975485955816376E-11	1.106E2	0.10985888578323966	1.4111421675977454E-4
2018-07-27 11:28:55.000000000	1.314E-11	6.922648793999052E-12	6.866811268981573E-12	9.127E-11	6.638058357244165E-12	1.2756756610864873E-11	2.020E-11	1.1355798541286041E-11	3.1121113908504875E-12	5.843E-11	9.669493181617994E-12	7.639859573928568E-12	1.106E2	0.10985888578323966	1.4111421675977454E-4
2018-07-27 11:29:05.000000000	-4.378E-12	7.215282133663573E-12	2.269559521332889E-11	9.995E-11	1.7675421889134098E-11	1.3964700147433772E-12	9.297E-12	1.6620606111368232E-12	1.2285575277916532E-11	6.567E-11	4.379110308435054E-12	1.899642972204465E-12	1.106E2	0.10985888578323966	1.4111421675977454E-4
2018-07-27 11:29:15.000000000	1.490E-11	1.5944712852561824E-11	3.4215216883775105E-12	8.445E-11	5.731078768210045E-12	1.988094768480808E-11	2.042E-11	1.808008805471908E-11	5.000901663718145E-12	6.199E-11	6.093287728930302E-12	7.32544634470857E-12	1.106E2	0.10985888578323966	1.4111421675977454E-4
2018-07-27 11:29:25.000000000	1.187E-12	5.467049280581854E-12	5.182661613049144E-12	1.007E-10	9.182187398392766E-12	1.5286100427191873E-11	1.064E-11	8.51313268766175E-12	5.2466591633819746E-12	6.716E-11	5.233434047651144E-12	1.2872028145837988E-11	1.106E2	0.10985888578323966	1.4111421675977454E-4
2018-07-27 11:29:35.000000000	1.589E-11	1.7957210524643207E-11	1.2404337541496055E-11	8.046E-11	1.3808378802715333E-11	1.6136607302250046E-11	2.897E-11	1.3230533185939668E-11	7.608070191402596E-12	6.638E-11	2.2903684732558602E-11	1.4799263122437023E-11	1.106E2	0.10985888578323966	1.4111421675977454E-4